! IGNION VIRTUAL ANTENNA LIBRARY
!
! NN_TRIO_B110x80_C80x12
! Virtual Antenna™ TRIO mXTEND™: NN03-310 30.0mm x 3.0mm x 1.0mm
! https://ignion.io/product/trio-mxtend/
! Board: 110mm x 80mm
! Clearance Area: 80mm x 12mm
! Feeding line: straight line; 9mm x 1mm
! Applications: Smartphone, Fleet management, IoT
! Frequency range 0.65GHz to 6GHz, step ~5MHz
! Number of ports 5
!
! This product and its use are protected by at least one or more of the following patents and
! patent applications PAT. US 2020/0176855 A1; WO 2019/008171 A1; and other domestic and international
! patents pending. Additional information about patents related to this product is available at 
! https://ignion.io/files/Patent-list-NN.pdf, all rights reserved. Copyright, Ignion 2021.
!
! Need more help? Your platform is much different than these examples in the manual? Use our 
! Fast Track service (https://ignion.io/fast-track/), for free, and get a personalized antenna design in
! just 24 hours.
!
!
! Touchstone port 1 = CST MWS port 1 ("Series Feeding Port 1")
! Touchstone port 2 = CST MWS port 2 ("Series in-Trio Port 1")
! Touchstone port 3 = CST MWS port 3 ("Series in-Trio Port 2")
! Touchstone port 4 = CST MWS port 4 ("Series Port in Feeding line of Port 2")
! Touchstone port 5 = CST MWS port 5 ("Series Feeding Port 2")
!
! CST MICROWAVE STUDIO 2019
# GHz S MA R 50
! Nport = 5
0.65                    0.637771           -0.21         0.364507         156.601         0.382243        -43.8855         0.385856        -43.9448
                        0.386494        -44.9752
                        0.365831         156.682          0.65966        -3.04765         0.372405        -44.6273          0.37665        -44.7417
                        0.377699        -45.7966
                         0.38162        -43.9593         0.373051        -44.5096         0.698061        -1.04771         0.329434         152.147
                        0.336646         148.582
                        0.386066        -43.9297         0.378657        -44.4772         0.329405         152.123         0.697307         3.95541
                        0.325254         157.574
                        0.386642        -44.9628         0.379802        -45.5153         0.336509         148.546         0.325254         157.574
                        0.691454        0.729403
0.65535                 0.637987       -0.255006         0.364142         156.477         0.382024        -44.2445         0.385665        -44.2982
                        0.386307        -45.3405
                        0.365483         156.545         0.660294         -3.1208         0.372028        -44.9937         0.376313        -45.0995
                        0.377374        -46.1652
                        0.381378        -44.3116         0.372712        -44.8832         0.699297        -1.12609         0.328394         151.968
                        0.335712         148.368
                        0.385879        -44.2851         0.378402        -44.8569         0.328356         151.944         0.698468         3.91402
                        0.324186         157.462
                        0.386458        -45.3296         0.379564        -45.9068         0.335563         148.333         0.324186         157.462
                        0.692529        0.663457
0.6607                  0.638188       -0.300075         0.363793         156.354         0.381802        -44.6042         0.385477        -44.6523
                        0.386121        -45.7066
                        0.365145         156.407         0.660921        -3.19403         0.371645        -45.3604         0.375976        -45.4576
                        0.377047        -46.5341
                        0.381137        -44.6643         0.372363        -45.2574         0.700535        -1.20601         0.327345         151.791
                        0.334769         148.156
                        0.385694        -44.6412         0.378135        -45.2374         0.327299         151.768         0.699628         3.87094
                         0.32311         157.353
                        0.386276        -45.6971         0.379314        -46.2991         0.334608         148.123          0.32311         157.353
                        0.693603        0.595804
0.66605                 0.638372       -0.345129          0.36346         156.232         0.381577        -44.9646         0.385291        -45.0071
                        0.385938        -46.0736
                        0.364817          156.27          0.66154        -3.26733         0.371255        -45.7273         0.375636        -45.8161
                        0.376719        -46.9034
                        0.380896        -45.0175         0.372004        -45.6322         0.701773        -1.28747         0.326287         151.617
                        0.333816         147.946
                        0.385511        -44.9981         0.377857        -45.6186         0.326232         151.593         0.700787         3.82619
                        0.322027         157.247
                        0.386095        -46.0656         0.379052        -46.6923         0.333645         147.915         0.322027         157.247
                        0.694676         0.52644
0.6714                  0.638541       -0.390091         0.363143         156.109          0.38135        -45.3255         0.385107        -45.3627
                        0.385756        -46.4415
                          0.3645         156.133         0.662153        -3.34062         0.370858        -46.0946         0.375295        -46.1748
                        0.376388        -47.2732
                        0.380656        -45.3713         0.371635        -46.0074         0.703012        -1.37048          0.32522         151.444
                        0.332854         147.739
                        0.385328        -45.3558         0.377568        -46.0004         0.325156         151.422         0.701944         3.77975
                        0.320938         157.144
                        0.385914         -46.435         0.378777        -47.0862         0.332674         147.709         0.320938         157.144
                        0.695745        0.455362
0.67675                 0.638694       -0.434882         0.362842         155.986          0.38112        -45.6871         0.384925        -45.7192
                        0.385575        -46.8105
                        0.364193         155.997         0.662759        -3.41389         0.370453        -46.4621         0.374951         -46.534
                        0.376055        -47.6433
                        0.380416        -45.7257         0.371255        -46.3831         0.704251        -1.45504         0.324144         151.274
                        0.331884         147.533
                        0.385146        -45.7144         0.377265        -46.3828         0.324073         151.252         0.703099         3.73162
                        0.319843         157.045
                        0.385735        -46.8053         0.378489        -47.4807         0.331694         147.506         0.319843         157.045
                        0.696811        0.382573
0.6821                  0.638831       -0.479422         0.362558         155.864         0.380886        -46.0493         0.384744        -46.0767
                        0.385395        -47.1804
                        0.363896          155.86         0.663359        -3.48709         0.370041        -46.8298         0.374605        -46.8935
                        0.375718        -48.0138
                        0.380175        -46.0807         0.370864         -46.759         0.705489        -1.54115         0.323061         151.107
                        0.330906          147.33
                        0.384965        -46.0739         0.376951        -46.7658         0.322982         151.086          0.70425         3.68182
                        0.318742         156.949
                        0.385555        -47.1767         0.378187        -47.8758         0.330708         147.305         0.318742         156.949
                        0.697873        0.308079
0.68745                 0.638952       -0.523633         0.362288          155.74         0.380648        -46.4122         0.384563        -46.4351
                        0.385215        -47.5514
                        0.363609         155.724         0.663953        -3.56018         0.369621        -47.1977         0.374255        -47.2533
                        0.375378        -48.3848
                        0.379933        -46.4363         0.370461        -47.1353         0.706725        -1.62879          0.32197         150.942
                         0.32992          147.13
                        0.384783        -46.4343         0.376624        -47.1491         0.321884         150.922         0.705396         3.63034
                        0.317637         156.856
                        0.385374        -47.5491         0.377872        -48.2714         0.329715         147.107         0.317637         156.856
                        0.698929        0.231891
0.6928                  0.639057       -0.567435         0.362035         155.617         0.380406        -46.7757         0.384383        -46.7944
                        0.385034        -47.9235
                        0.363333         155.587         0.664542        -3.63313         0.369194        -47.5657         0.373903        -47.6136
                        0.375034        -48.7563
                         0.37969        -46.7926         0.370048        -47.5117          0.70796        -1.71798         0.320873          150.78
                        0.328928         146.931
                          0.3846        -46.7956         0.376284        -47.5327          0.32078         150.761         0.706538         3.57721
                        0.316528         156.767
                        0.385193        -47.9226         0.377543        -48.6674         0.328716         146.911         0.316528         156.767
                        0.699979        0.154022
0.69815                 0.639147       -0.610752         0.361796         155.493         0.380159        -47.1397         0.384201        -47.1548
                        0.384851        -48.2967
                        0.363066          155.45         0.665126        -3.70592         0.368758        -47.9337         0.373547        -47.9742
                        0.374687        -49.1281
                        0.379446        -47.1497         0.369623        -47.8883         0.709193        -1.80869         0.319769         150.621
                        0.327929         146.736
                        0.384416        -47.1579         0.375931        -47.9165         0.319669         150.602         0.707674         3.52243
                        0.315416         156.681
                        0.385009        -48.2972           0.3772        -49.0636         0.327711         146.717         0.315416         156.681
                        0.701023       0.0744906
0.7035                  0.639223       -0.653504         0.361571         155.368         0.379908        -47.5044         0.384019        -47.5163
                        0.384667        -48.6711
                        0.362809         155.313         0.665706         -3.7785         0.368315        -48.3018         0.373188        -48.3352
                        0.374335        -49.5003
                        0.379199        -47.5074         0.369187        -48.2649         0.710422        -1.90092         0.318659         150.464
                        0.326924         146.543
                         0.38423        -47.5213         0.375565        -48.3005         0.318553         150.447         0.708803         3.46603
                        0.314302           156.6
                        0.384823         -48.673         0.376843          -49.46         0.326701         146.527         0.314302           156.6
                        0.702059     -0.00668135
0.70885                 0.639283       -0.695615         0.361361         155.242         0.379651        -47.8697         0.383835        -47.8788
                        0.384481        -49.0467
                        0.362561         155.176         0.666281        -3.85087         0.367863        -48.6699         0.372824        -48.6965
                        0.373978         -49.873
                         0.37895        -47.8658         0.368739        -48.6415         0.711647        -1.99465         0.317545         150.311
                        0.325913         146.353
                        0.384041        -47.8856         0.375186        -48.6846         0.317433         150.294         0.709926         3.40802
                        0.313186         156.522
                        0.384634        -49.0498         0.376472        -49.8566         0.325687         146.339         0.313186         156.522
                        0.703086      -0.0894683
0.7142                  0.639329       -0.737011         0.361164         155.115         0.379389        -48.2355         0.383649        -48.2424
                        0.384291        -49.4234
                        0.362323         155.037         0.666853        -3.92299         0.367403         -49.038         0.372455        -49.0582
                        0.373616         -50.246
                        0.378699        -48.2249          0.36828         -49.018         0.712869        -2.08986         0.316425          150.16
                        0.324898         146.166
                         0.38385         -48.251         0.374794        -49.0687         0.316308         150.145          0.71104         3.34844
                         0.31207         156.448
                        0.384442        -49.4279         0.376086        -50.2531         0.324669         146.154          0.31207         156.448
                        0.704104       -0.173841
0.71955                 0.639361       -0.777615          0.36098         154.987         0.379121        -48.6018         0.383459        -48.6071
                        0.384098        -49.8013
                        0.362094         154.899         0.667423        -3.99485         0.366935        -49.4059         0.372082        -49.4202
                        0.373249        -50.6195
                        0.378444        -48.5847         0.367809        -49.3943         0.714085        -2.18655         0.315302         150.013
                        0.323879         145.981
                        0.383655        -48.6174         0.374388        -49.4526          0.31518         149.999         0.712146          3.2873
                        0.310953         156.378
                        0.384245        -49.8071         0.375686        -50.6495         0.323648         145.972         0.310953         156.378
                        0.705112       -0.259767
0.7249                  0.639379       -0.817356         0.360809         154.858         0.378847        -48.9687         0.383267        -48.9729
                        0.383901        -50.1805
                        0.361874         154.759          0.66799        -4.06644         0.366458        -49.7737         0.371704        -49.7826
                        0.372876        -50.9932
                        0.378185        -48.9452         0.367327        -49.7703         0.715296        -2.28467         0.314175         149.868
                        0.322856           145.8
                        0.383456        -48.9848         0.373969        -49.8363         0.314048         149.856         0.713242         3.22465
                        0.309837         156.311
                        0.384044        -50.1874         0.375272        -51.0458         0.322623         145.793         0.309837         156.311
                         0.70611        -0.34721
0.73025                 0.639385       -0.856164          0.36065         154.728         0.378567         -49.336          0.38307        -49.3398
                        0.383698        -50.5608
                        0.361661         154.619         0.668555        -4.13773         0.365973        -50.1412          0.37132        -50.1452
                        0.372497        -51.3673
                        0.377922        -49.3064         0.366833         -50.146         0.716501        -2.38422         0.313045         149.727
                         0.32183         145.621
                        0.383252        -49.3532         0.373537        -50.2197         0.312915         149.716         0.714329         3.16052
                        0.308722         156.249
                        0.383837        -50.5689         0.374843        -51.4418         0.321597         145.617         0.308722         156.249
                        0.707096       -0.436132
0.7356                  0.639378       -0.893969         0.360501         154.595          0.37828        -49.7039         0.382869        -49.7078
                         0.38349        -50.9423
                        0.361457         154.478         0.669118        -4.20872          0.36548        -50.5085         0.370931        -50.5082
                        0.372112        -51.7417
                        0.377655        -49.6683         0.366327        -50.5213           0.7177        -2.48517         0.311913         149.589
                        0.320802         145.445
                        0.383043        -49.7227         0.373091        -50.6027          0.31178         149.579         0.715405         3.09494
                         0.30761         156.191
                        0.383624        -50.9514           0.3744        -51.8374          0.32057         145.444          0.30761         156.191
                         0.70807        -0.52649
0.74095                  0.63936       -0.930706         0.360364         154.462         0.377986        -50.0721         0.382662        -50.0769
                        0.383276        -51.3249
                        0.361261         154.336         0.669681        -4.27941         0.364978        -50.8755         0.370536        -50.8713
                         0.37172        -52.1164
                        0.377383        -50.0309         0.365811        -50.8961         0.718892        -2.58749          0.31078         149.454
                        0.319773         145.273
                        0.382828        -50.0931         0.372633        -50.9853         0.310643         149.446         0.716469         3.02795
                        0.306501         156.136
                        0.383405        -51.3351         0.373942        -52.2325         0.319541         145.274         0.306501         156.136
                        0.709031       -0.618239
0.7463                   0.63933       -0.966311         0.360236         154.326         0.377684        -50.4407          0.38245         -50.447
                        0.383055        -51.7087
                        0.361071         154.193         0.670244        -4.34978         0.364467        -51.2422         0.370134        -51.2347
                        0.371321        -52.4913
                        0.377106        -50.3942         0.365283        -51.2704         0.720076        -2.69115         0.309646         149.322
                        0.318742         145.104
                        0.382607        -50.4645         0.372161        -51.3673         0.309507         149.316         0.717522          2.9596
                        0.305396         156.086
                        0.383178        -51.7199         0.373471        -52.6271         0.318512         145.107         0.305396         156.086
                        0.709979       -0.711331
0.75165                  0.63929        -1.00072         0.360117         154.189         0.377375        -50.8097         0.382231        -50.8181
                        0.382827        -52.0936
                        0.360888         154.049         0.670807        -4.41985         0.363949        -51.6084         0.369726        -51.5983
                        0.370915        -52.8664
                        0.376823         -50.758         0.364744         -51.644         0.721252        -2.79612         0.308511         149.194
                        0.317711         144.937
                         0.38238        -50.8368         0.371676        -51.7487          0.30837         149.189         0.718563         2.88992
                        0.304296          156.04
                        0.382944        -52.1057         0.372985         -53.021         0.317484         144.943         0.304296          156.04
                        0.710913       -0.805716
0.757                    0.63924        -1.03388         0.360006          154.05         0.377059         -51.179         0.382005        -51.1902
                         0.38259        -52.4795
                        0.360712         153.904         0.671371         -4.4896         0.363422        -51.9742         0.369311         -51.962
                        0.370501        -53.2416
                        0.376534        -51.1225         0.364194        -52.0169          0.72242        -2.90236         0.307377         149.069
                         0.31668         144.774
                        0.382144          -51.21         0.371179        -52.1293         0.307235         149.066          0.71959         2.81897
                        0.303201         155.998
                        0.382701        -52.4925         0.372486        -53.4141         0.316457         144.782         0.303201         155.998
                        0.711832       -0.901342
0.76235                 0.639181        -1.06574         0.359902         153.908         0.376734        -51.5485         0.381771        -51.5633
                        0.382345        -52.8665
                        0.360541         153.757         0.671936        -4.55905         0.362886        -52.3395         0.368889        -52.3258
                        0.370079        -53.6169
                        0.376239        -51.4875         0.363634         -52.389         0.723579        -3.00985         0.306243         148.948
                         0.31565         144.614
                        0.381901        -51.5841         0.370669        -52.5091         0.306101         148.946         0.720604          2.7468
                        0.302112          155.96
                         0.38245        -52.8803         0.371973        -53.8064         0.315432         144.625         0.302112          155.96
                        0.712736       -0.998154
0.7677                  0.639114        -1.09624         0.359805         153.765         0.376401        -51.9182          0.38153        -51.9373
                        0.382091        -53.2544
                        0.360376         153.609         0.672503         -4.6282         0.362342        -52.7042          0.36846        -52.6897
                         0.36965        -53.9923
                        0.375937         -51.853         0.363063        -52.7603         0.724728        -3.11855         0.305111         148.829
                        0.314622         144.457
                         0.38165         -51.959         0.370147         -52.888         0.304969         148.829         0.721604         2.67344
                        0.301031         155.926
                        0.382189        -53.2689         0.371447        -54.1977         0.314409          144.47         0.301031         155.926
                        0.713625         -1.0961
0.77305                  0.63904        -1.12534         0.359714          153.62          0.37606        -52.2882          0.38128        -52.3122
                        0.381827        -53.6433
                        0.360215          153.46         0.673073        -4.69707          0.36179        -53.0683         0.368023        -53.0535
                        0.369212        -54.3677
                        0.375628        -52.2191         0.362482        -53.1306         0.725868        -3.22842         0.303982         148.714
                        0.313595         144.303
                        0.381389        -52.3346         0.369612        -53.2659          0.30384         148.716         0.722589         2.59896
                        0.299957         155.895
                        0.381918        -53.6584         0.370907         -54.588         0.313388         144.319         0.299957         155.895
                        0.714498        -1.19511
0.7784                   0.63896        -1.15299         0.359627         153.472          0.37571        -52.6582         0.381021        -52.6878
                        0.381553         -54.033
                        0.360058          153.31         0.673645        -4.76566          0.36123        -53.4317         0.367579        -53.4174
                        0.368766        -54.7431
                        0.375311        -52.5856          0.36189           -53.5         0.726998        -3.33943         0.302855         148.603
                        0.312572         144.153
                         0.38112         -52.711         0.369066        -53.6427         0.302714         148.606          0.72356         2.52341
                        0.298891         155.869
                        0.381637        -54.0487         0.370355        -54.9771         0.312372          144.17         0.298891         155.869
                        0.715354        -1.29514
0.78375                 0.638874        -1.17916         0.359544         153.323         0.375352        -53.0283         0.380752        -53.0642
                        0.381268        -54.4235
                        0.359905         153.158         0.674221          -4.834         0.360662        -53.7944         0.367127        -53.7811
                        0.368312        -55.1183
                        0.374987        -52.9524         0.361289        -53.8683         0.728117        -3.45153         0.301731         148.495
                        0.311551         144.005
                        0.380841         -53.088         0.368508        -54.0183         0.301592         148.499         0.724516         2.44684
                        0.297834         155.846
                        0.381345        -54.4398          0.36979        -55.3651         0.311359         144.025         0.297834         155.846
                        0.716194        -1.39611
0.7891                  0.638783         -1.2038         0.359465         153.171         0.374985        -53.3984         0.380473        -53.4413
                        0.380973        -54.8148
                        0.359755         153.004         0.674801         -4.9021         0.360086        -54.1564         0.366666        -54.1447
                        0.367849        -55.4934
                        0.374655        -53.3197         0.360678        -54.2355         0.729225        -3.56468         0.300612          148.39
                        0.310535         143.861
                        0.380551        -53.4656         0.367939        -54.3928         0.300475         148.396         0.725456          2.3693
                        0.296787         155.828
                        0.381042        -54.8314         0.369213        -55.7517         0.310351         143.883         0.296787         155.828
                        0.717016        -1.49798
0.79445                  0.63869         -1.2269         0.359387         153.017         0.374608        -53.7684         0.380184         -53.819
                        0.380665        -55.2067
                        0.359607         152.849         0.675386        -4.96998         0.359503        -54.5175         0.366198        -54.5081
                        0.367376        -55.8683
                        0.374314        -53.6872         0.360058        -54.6015         0.730322        -3.67886         0.299497         148.288
                        0.309524          143.72
                        0.380251        -53.8437         0.367359        -54.7659         0.299362         148.296         0.726381         2.29085
                        0.295751         155.813
                        0.380727        -55.2237         0.368624         -56.137         0.309348         143.743         0.295751         155.813
                        0.717821        -1.60067
0.7998                  0.638593        -1.24842         0.359311          152.86         0.374223        -54.1383         0.379884        -54.1973
                        0.380345        -55.5991
                        0.359462         152.692         0.675975        -5.03768         0.358912        -54.8777         0.365722        -54.8713
                        0.366895        -56.2428
                        0.373965         -54.055          0.35943        -54.9662         0.731408          -3.794         0.298387          148.19
                        0.308517         143.582