! IGNION VIRTUAL ANTENNA LIBRARY
!
! NN_TRIO_B80x30_C30x12
! Virtual Antenna™ TRIO mXTEND™: NN03-310 30.0mm x 3.0mm x 1.0mm
! https://ignion.io/product/trio-mxtend/
! Board: 80mm x 30mm
! Clearance Area: 30mm x 12mm
! Feeding line: straight line; 9mm x 1mm
! Applications: Smartphone, Fleet management, IoT
! Frequency range 0.65GHz to 6GHz, step ~5MHz
! Number of ports 5
!
! This product and its use are protected by at least one or more of the following patents and
! patent applications PAT. US 2020/0176855 A1; WO 2019/008171 A1; and other domestic and international
! patents pending. Additional information about patents related to this product is available at 
! https://ignion.io/files/Patent-list-NN.pdf, all rights reserved. Copyright, Ignion 2021.
!
! Need more help? Your platform is much different than these examples in the manual? Use our 
! Fast Track service (https://ignion.io/fast-track/), for free, and get a personalized antenna design in
! just 24 hours.
!
!
! Touchstone port 1 = CST MWS port 1 ("Series Feeding Port 1")
! Touchstone port 2 = CST MWS port 2 ("Series in-Trio Port 1")
! Touchstone port 3 = CST MWS port 3 ("Series in-Trio Port 2")
! Touchstone port 4 = CST MWS port 4 ("Series Port in Feeding line of Port 2")
! Touchstone port 5 = CST MWS port 5 ("Series Feeding Port 2")
!
! CST MICROWAVE STUDIO 2019
# GHz S MA R 50
! Nport = 5
0.65                    0.650168       0.0531046         0.357117         155.898         0.377731        -43.8371         0.382897        -42.9439
                        0.383682        -43.3052
                        0.357307         156.036          0.66698        -3.02764         0.369265        -44.8067         0.375568        -44.0831
                        0.377155        -44.5592
                        0.377851        -43.8523         0.369265        -44.8067         0.698669       -0.723884          0.33182         151.776
                        0.340319         148.595
                        0.382888        -42.9437          0.37546        -44.0733         0.331969         151.931         0.696864          5.2007
                        0.331678         156.653
                        0.383682        -43.3052         0.377013        -44.5147         0.340421         148.737         0.331686         156.653
                        0.689667         3.13839
0.65535                 0.650657       0.0233124         0.356556         155.739         0.377367        -44.1703         0.382568          -43.27
                         0.38334        -43.6338
                        0.356794         155.875         0.667799        -3.10154         0.368807        -45.1487          0.37518        -44.4194
                        0.376775        -44.8988
                        0.377482        -44.1861         0.368807        -45.1487         0.699814        -0.79507         0.330905         151.591
                        0.339539         148.377
                        0.382558        -43.2698         0.375075        -44.4092         0.331102         151.743         0.697953         5.17757
                         0.33081         156.513
                        0.383339        -43.6338         0.376649        -44.8539         0.339688         148.517         0.330818         156.513
                        0.690643         3.10568
0.6607                  0.651157     -0.00739642          0.35599         155.582         0.377009        -44.5025         0.382246        -43.5949
                        0.383007         -43.961
                        0.356273         155.714         0.668619        -3.17647         0.368351        -45.4901         0.374795         -44.755
                          0.3764        -45.2376
                        0.377117        -44.5189         0.368351        -45.4901         0.700963       -0.867235         0.329983         151.407
                        0.338752          148.16
                        0.382236        -43.5947         0.374694        -44.7443         0.330227         151.555         0.699046         5.15333
                        0.329932         156.373
                        0.383007         -43.961         0.376291        -45.1923         0.338945         148.297          0.32994         156.373
                        0.691629         3.07192
0.66605                 0.651667      -0.0391066         0.355419         155.426         0.376655        -44.8338         0.381932        -43.9187
                        0.382684         -44.287
                        0.355744         155.554         0.669438        -3.25245         0.367897        -45.8309         0.374415        -45.0898
                        0.376031        -45.5755
                        0.376758        -44.8507         0.367897        -45.8309         0.702115         -0.9404         0.329053         151.224
                        0.337957         147.944
                        0.381923        -43.9185         0.374318        -45.0786         0.329342         151.368         0.700144         5.12796
                        0.329043         156.234
                        0.382684         -44.287         0.375938          -45.53         0.338192         148.077         0.329052         156.234
                        0.692622         3.03707
0.6714                  0.652186      -0.0719006         0.354841         155.271         0.376308        -45.1643         0.381628        -44.2414
                        0.382371        -44.6119
                        0.355208         155.395         0.670256        -3.32948         0.367446         -46.171          0.37404        -45.4239
                        0.375668        -45.9126
                        0.376404        -45.1817         0.367446         -46.171         0.703272        -1.01459         0.328115         151.042
                        0.337153         147.729
                        0.381618        -44.2413         0.373947        -45.4123         0.328447         151.182         0.701247         5.10141
                        0.328144         156.097
                        0.382371        -44.6119          0.37559         -45.867          0.33743         147.858         0.328152         156.097
                        0.693624         3.00105
0.67675                 0.652714       -0.105858         0.354259         155.118         0.375966         -45.494         0.381332        -44.5633
                         0.38207        -44.9357
                        0.354665         155.238         0.671074        -3.40756         0.366998        -46.5106         0.373669        -45.7573
                         0.37531         -46.249
                        0.376056        -45.5119         0.366998        -46.5106         0.704432        -1.08982         0.327169         150.861
                        0.336342         147.514
                        0.381323        -44.5632          0.37358        -45.7453         0.327542         150.996         0.702354         5.07366
                        0.327233          155.96
                         0.38207        -44.9357         0.375249        -46.2034         0.336657         147.639         0.327241          155.96
                        0.694634         2.96382
0.6821                   0.65325       -0.141057         0.353672         154.967         0.375631        -45.8231         0.381046        -44.8843
                        0.381779        -45.2586
                        0.354115         155.081          0.67189         -3.4867         0.366552        -46.8496         0.373303        -46.0902
                        0.374959        -46.5847
                        0.375714        -45.8413         0.366552        -46.8497         0.705596        -1.16612         0.326216         150.681
                        0.335522           147.3
                        0.381036        -44.8842         0.373219        -46.0778         0.326628         150.811         0.703465         5.04466
                        0.326311         155.825
                        0.381779        -45.2586         0.374914        -46.5393         0.335874         147.421         0.326319         155.825
                        0.695651         2.92531
0.68745                 0.653794       -0.177571         0.353079         154.817         0.375301        -46.1515         0.380769        -45.2046
                        0.381501        -45.5806
                        0.353558         154.927         0.672706        -3.56689          0.36611        -47.1882         0.372943        -46.4225
                        0.374615        -46.9199
                        0.375379        -46.1701          0.36611        -47.1882         0.706763         -1.2435         0.325255         150.503
                        0.334693         147.088
                         0.38076        -45.2044         0.372863        -46.4098         0.325703         150.627         0.704579         5.01439
                        0.325378         155.692
                        0.381501        -45.5806         0.374585        -46.8748         0.335081         147.204         0.325386         155.692
                        0.696675         2.88546
0.6928                  0.654345       -0.215471         0.352483         154.669         0.374979        -46.4794         0.380503        -45.5242
                        0.381234         -45.902
                        0.352995         154.773         0.673519        -3.64814          0.36567        -47.5264         0.372588        -46.7543
                        0.374277        -47.2546
                        0.375049        -46.4982          0.36567        -47.5264         0.707933        -1.32199         0.324286         150.325
                        0.333857         146.876
                        0.380493         -45.524         0.372512        -46.7414         0.324768         150.444         0.705697         4.98281
                        0.324433          155.56
                        0.381234         -45.902         0.374262        -47.2099         0.334278         146.987         0.324441          155.56
                        0.697706         2.84423
0.69815                 0.654902       -0.254823         0.351882         154.523         0.374663        -46.8068         0.380246        -45.8432
                        0.380979        -46.2228
                        0.352425         154.622          0.67433        -3.73044         0.365233        -47.8641         0.372238        -47.0858
                        0.373946        -47.5888
                        0.374727        -46.8258         0.365233        -47.8641         0.709106         -1.4016         0.323309         150.149
                        0.333012         146.665
                        0.380237        -45.8431         0.372167        -47.0726         0.323823         150.261         0.706817          4.9499
                        0.323478         155.429
                        0.380979        -46.2228         0.373946        -47.5446         0.333464         146.771         0.323486         155.429
                        0.698743         2.80157
0.7035                  0.655464       -0.295691         0.351278         154.379         0.374353        -47.1338         0.380001        -46.1618
                        0.380737        -46.5431
                        0.351849         154.472         0.675138         -3.8138         0.364799        -48.2015         0.371894        -47.4168
                        0.373622        -47.9227
                        0.374411         -47.153         0.364799        -48.2015         0.710282        -1.48235         0.322325         149.975
                        0.332158         146.456
                        0.379991        -46.1617         0.371827        -47.4034         0.322868         150.081          0.70794         4.91562
                        0.322512         155.301
                        0.380737        -46.5431         0.373637        -47.8791         0.332639         146.556          0.32252         155.301
                        0.699786         2.75741
0.70885                 0.656031       -0.338133         0.350671         154.236         0.374051        -47.4604         0.379765        -46.4801
                        0.380507         -46.863
                        0.351268         154.323         0.675943        -3.89821         0.364368        -48.5385         0.371555        -47.7476
                        0.373305        -48.2563
                        0.374102        -47.4797         0.364368        -48.5386         0.711459        -1.56427         0.321333         149.802
                        0.331297         146.248
                        0.379756        -46.4799         0.371493         -47.734         0.321903         149.901         0.709065         4.87994
                        0.321534         155.174
                        0.380507         -46.863         0.373334        -48.2135         0.331804         146.342         0.321542         155.174
                        0.700834         2.71171
0.7142                  0.656602       -0.382204         0.350061         154.096         0.373756        -47.7867         0.379541        -46.7981
                         0.38029        -47.1828
                        0.350681         154.177         0.676745        -3.98365         0.363941        -48.8754         0.371222        -48.0782
                        0.372995        -48.5897
                          0.3738        -47.8061         0.363941        -48.8754         0.712639        -1.64735         0.320333         149.631
                        0.330426         146.041
                        0.379531         -46.798         0.371164        -48.0645         0.320928         149.723         0.710192         4.84286
                        0.320546          155.05
                         0.38029        -47.1828         0.373037        -48.5477         0.330958         146.129         0.320554          155.05
                        0.701887         2.66444
0.71955                 0.657176       -0.427953         0.349448         153.958         0.373467        -48.1129         0.379327         -47.116
                        0.380086        -47.5024
                         0.35009         154.033         0.677542        -4.07013         0.363516         -49.212         0.370895        -48.4087
                        0.372692         -48.923
                        0.373505        -48.1323         0.363516         -49.212          0.71382        -1.73163         0.319326         149.461
                        0.329548         145.836
                        0.379318        -47.1158         0.370841        -48.3948         0.319943         149.546         0.711319         4.80432
                        0.319548         154.928
                        0.380086        -47.5024         0.372748         -48.882         0.330102         145.918         0.319556         154.928
                        0.702943         2.61553
0.7249                  0.657751       -0.475426         0.348834         153.822         0.373186        -48.4389         0.379124        -47.4338
                        0.379895         -47.822
                        0.349494          153.89         0.678336        -4.15763         0.363094        -49.5484         0.370573        -48.7391
                        0.372396        -49.2563
                        0.373218        -48.4583         0.363094        -49.5484         0.715002        -1.81711         0.318312         149.293
                        0.328662         145.632
                        0.379115        -47.4337         0.370524        -48.7251         0.318949         149.371         0.712447         4.76433
                        0.318539         154.808
                        0.379895         -47.822         0.372464        -49.2163         0.329236         145.708         0.318547         154.808
                        0.704003         2.56496
0.73025                 0.658327       -0.524663         0.348218         153.689         0.372911        -48.7648         0.378932        -47.7518
                        0.379717        -48.1419
                        0.348894          153.75         0.679125        -4.24615         0.362676        -49.8847         0.370256        -49.0694
                        0.372107        -49.5896
                        0.372937        -48.7842         0.362676        -49.8847         0.716186         -1.9038         0.317291         149.127
                        0.327768          145.43
                        0.378922        -47.7516         0.370212        -49.0554         0.317944         149.197         0.713575         4.72286
                        0.317521         154.691
                        0.379717        -48.1419         0.372188        -49.5507         0.328359         145.499         0.317528         154.691
                        0.705066         2.51269
0.7356                  0.658903       -0.575698         0.347601         153.557         0.372644        -49.0908          0.37875        -48.0699
                        0.379551         -48.462
                        0.348291         153.612         0.679909        -4.33567          0.36226        -50.2209         0.369945        -49.3998
                        0.371824         -49.923
                        0.372663          -49.11          0.36226        -50.2209         0.717369        -1.99171         0.316263         148.963
                        0.326866         145.229
                        0.378741        -48.0697         0.369905        -49.3858         0.316931         149.025         0.714702         4.67988
                        0.316492         154.576
                        0.379551         -48.462         0.371917        -49.8853         0.327472         145.292           0.3165         154.576
                         0.70613         2.45867
0.74095                 0.659477       -0.628563         0.346984         153.428         0.372383        -49.4169          0.37858        -48.3883
                        0.379399        -48.7825
                        0.347685         153.476         0.680687        -4.42617         0.361848        -50.5571          0.36964        -49.7303
                        0.371549        -50.2566
                        0.372396        -49.4359         0.361848        -50.5571         0.718553        -2.08086         0.315229           148.8
                        0.325956          145.03
                         0.37857        -48.3881         0.369604        -49.7163         0.315907         148.855         0.715829         4.63539
                        0.315454         154.464
                        0.379399        -48.7825         0.371653        -50.2202         0.326576         145.086         0.315462         154.464
                        0.707196         2.40289
0.7463                  0.660049        -0.68328         0.346367         153.302         0.372129        -49.7431          0.37842        -48.7071
                        0.379259        -49.1035
                        0.347077         153.343          0.68146        -4.51765         0.361438        -50.8933          0.36934         -50.061
                        0.371281        -50.5905
                        0.372137        -49.7619         0.361438        -50.8933         0.719737        -2.17125         0.314188          148.64
                        0.325039         144.833
                         0.37841        -48.7069         0.369309        -50.0471         0.314875         148.687         0.716953         4.58937
                        0.314408         154.355
                        0.379259        -49.1035         0.371395        -50.5555         0.325669         144.882         0.314415         154.355
                        0.708262          2.3453
0.75165                 0.660617        -0.73987         0.345751         153.177         0.371882        -50.0696          0.37827        -49.0264
                        0.379132        -49.4252
                        0.346467         153.212         0.682226        -4.61009         0.361031        -51.2295         0.369045        -50.3919
                        0.371018        -50.9247
                        0.371884        -50.0882         0.361031        -51.2296          0.72092        -2.26289          0.31314         148.482
                        0.324115         144.638
                        0.378261        -49.0262         0.369018        -50.3781         0.313835         148.521         0.718075         4.54182
                        0.313353          154.25
                        0.379132        -49.4252         0.371143        -50.8912         0.324753         144.681          0.31336         154.249
                        0.709327          2.2859
0.757                    0.66118       -0.798345         0.345136         153.056         0.371642        -50.3964         0.378131        -49.3463
                        0.379017        -49.7477
                        0.345856         153.083         0.682986        -4.70346         0.360627        -51.5659         0.368755        -50.7232
                        0.370763        -51.2594
                        0.371637        -50.4147         0.360627        -51.5659         0.722102        -2.35578         0.312087         148.326
                        0.323184         144.445
                        0.378122        -49.3461         0.368732        -50.7095         0.312785         148.358         0.719194         4.49271
                        0.312289         154.147
                        0.379017        -49.7477         0.370897        -51.2274         0.323828         144.481         0.312297         154.147
                        0.710391         2.22464
0.76235                 0.661738       -0.858714         0.344523         152.936         0.371408        -50.7236         0.378002        -49.6669
                        0.378915        -50.0711
                        0.345245         152.957         0.683739        -4.79776         0.360225        -51.9024          0.36847        -51.0548
                        0.370513        -51.5946
                        0.371398        -50.7415         0.360225        -51.9024         0.723283        -2.44993         0.311028         148.173
                        0.322246         144.255
                        0.377993        -49.6668         0.368451        -51.0412         0.311728         148.196         0.720309         4.44205
                        0.311219         154.048
                        0.378915        -50.0711         0.370657        -51.5641         0.322894         144.283         0.311226         154.048
                        0.711453         2.16153
0.7677                  0.662288        -0.92098         0.343913          152.82          0.37118        -51.0512         0.377883        -49.9883
                        0.378824        -50.3955
                        0.344634         152.833         0.684485        -4.89295         0.359826         -52.239         0.368189        -51.3868
                         0.37027        -51.9303
                        0.371165        -51.0687         0.359826         -52.239         0.724461        -2.54533         0.309964         148.021
                        0.321302         144.066
                        0.377874        -49.9882         0.368175        -51.3735         0.310663         148.037          0.72142         4.38984
                        0.310141         153.952
                        0.378824        -50.3955         0.370422        -51.9015         0.321952         144.087         0.310148         153.952
                        0.712511         2.09653
0.77305                  0.66283       -0.985139         0.343305         152.705         0.370959        -51.3794         0.377774        -50.3107
                        0.378745        -50.7211
                        0.344023         152.712         0.685222        -4.98901         0.359429        -52.5759         0.367913        -51.7193
                        0.370032        -52.2667
                        0.370938        -51.3965         0.359429        -52.5759         0.725637        -2.64199         0.308895         147.873
                        0.320352          143.88
                        0.377764        -50.3106         0.367903        -51.7062          0.30959         147.881         0.722526         4.33606
                        0.309057          153.86
                        0.378745        -50.7211         0.370192        -52.2396         0.321001         143.894         0.309064         153.859
                        0.713566         2.02965
0.7784                  0.663363        -1.05118         0.342702         152.594         0.370743        -51.7081         0.377674        -50.6341
                        0.378677         -51.048
                        0.343414         152.594         0.685952        -5.08593         0.359034        -52.9131         0.367642        -52.0524
                          0.3698        -52.6039
                        0.370717        -51.7247         0.359034        -52.9131         0.726811         -2.7399         0.307821         147.727
                        0.319396         143.696
                        0.377664        -50.6339         0.367636        -52.0396         0.308511         147.727         0.723626         4.28073
                        0.307967         153.771
                        0.378677         -51.048         0.369966        -52.5784         0.320042         143.703         0.307974         153.771
                        0.714615         1.96086
0.78375                 0.663884         -1.1191         0.342103         152.485         0.370533        -52.0375         0.377583        -50.9586
                         0.37862        -51.3762
                        0.342808         152.478         0.686673        -5.18367         0.358641        -53.2505         0.367374        -52.3861
                        0.369573        -52.9418
                        0.370502        -52.0537         0.358641        -53.2505         0.727981        -2.83907         0.306743         147.583
                        0.318435         143.514
                        0.377573        -50.9584         0.367372        -52.3735         0.307424         147.576          0.72472         4.22385
                        0.306872         153.687
                         0.37862        -51.3762         0.369746        -52.9181         0.319076         143.515         0.306879         153.686
                        0.715658         1.89018
0.7891                  0.664394        -1.18886         0.341509         152.378         0.370328        -52.3676           0.3775        -51.2843
                        0.378573         -51.706
                        0.342204         152.365         0.687386        -5.28221          0.35825        -53.5883          0.36711        -52.7205
                        0.369351        -53.2805
                        0.370292        -52.3833          0.35825        -53.5883         0.729147        -2.93949         0.305661         147.442
                        0.317469         143.335
                        0.377491        -51.2841         0.367112        -52.7082         0.306332         147.427         0.725806         4.16541
                        0.305772         153.606
                        0.378573         -51.706         0.369529        -53.2586         0.318103         143.329         0.305779         153.606
                        0.716694          1.8176
0.79445                  0.66489        -1.26045         0.340921         152.274         0.370128        -52.6986         0.377426        -51.6113
                        0.378537        -52.0373
                        0.341604         152.255         0.688089        -5.38152          0.35786        -53.9265          0.36685        -53.0555
                        0.369133        -53.6202
                        0.370088        -52.7136          0.35786        -53.9265         0.730309        -3.04114         0.304575         147.304
                        0.316499         143.159
                        0.377417        -51.6111         0.366855        -53.0436         0.305234         147.282         0.726885         4.10545
                        0.304669         153.529
                        0.378537        -52.0373         0.369317        -53.6001         0.317123         143.146         0.304676         153.529
                        0.717722         1.74312
0.7998                  0.665372        -1.33384          0.34034         152.173         0.369933        -53.0303         0.377359        -51.9397
                        0.378509        -52.3704
                        0.341009         152.147         0.688783        -5.48157         0.357472         -54.265         0.366593        -53.3914
                        0.368919        -53.9609
                        0.369888        -53.0448         0.357472         -54.265         0.731467        -3.14404         0.303486         147.169
                        0.315524         142.985