! IGNION VIRTUAL ANTENNA LIBRARY
!
! NN_TRIO_B50x50_C50x12
! Virtual Antenna™ TRIO mXTEND™: NN03-310 30.0mm x 3.0mm x 1.0mm
! https://ignion.io/product/trio-mxtend/
! Board: 50mm x 50mm
! Clearance Area: 50mm x 12mm
! Feeding line: straight line; 9mm x 1mm
! Applications: Smartphone, Fleet management, IoT
! Frequency range 0.65GHz to 6GHz, step ~5MHz
! Number of ports 5
!
! This product and its use are protected by at least one or more of the following patents and
! patent applications PAT. US 2020/0176855 A1; WO 2019/008171 A1; and other domestic and international
! patents pending. Additional information about patents related to this product is available at 
! https://ignion.io/files/Patent-list-NN.pdf, all rights reserved. Copyright, Ignion 2021.
!
! Need more help? Your platform is much different than these examples in the manual? Use our 
! Fast Track service (https://ignion.io/fast-track/), for free, and get a personalized antenna design in
! just 24 hours.
!
!
! Touchstone port 1 = CST MWS port 1 ("Series Feeding Port 1")
! Touchstone port 2 = CST MWS port 2 ("Series in-Trio Port 1")
! Touchstone port 3 = CST MWS port 3 ("Series in-Trio Port 2")
! Touchstone port 4 = CST MWS port 4 ("Series Port in Feeding line of Port 2")
! Touchstone port 5 = CST MWS port 5 ("Series Feeding Port 2")
!
! CST MICROWAVE STUDIO 2019
# GHz S MA R 50
! Nport = 5
0.65                    0.652598         1.10534          0.35822         155.981         0.379595        -42.8277         0.384279        -42.5167
                         0.38489        -43.2667
                        0.358651         155.768         0.666692        -1.90763          0.37055        -43.7576         0.376328        -43.7316
                        0.377616        -44.6395
                        0.380072        -42.9923         0.370987        -43.8452         0.703282        0.298179         0.327307         151.367
                        0.334947         147.749
                        0.384515        -42.6033         0.376717        -43.8108         0.327299         151.367         0.704766         5.05031
                        0.322334         155.985
                        0.384972        -43.2997         0.377981        -44.7119         0.334939         147.749         0.322334         155.985
                        0.699714         2.10175
0.65535                 0.653166         1.06883         0.357711          155.83         0.379408        -43.1626         0.384165        -42.8522
                        0.384782        -43.6099
                        0.358067         155.616         0.667415        -1.97004         0.370197        -44.0994         0.376054        -44.0753
                        0.377352        -44.9915
                        0.379823        -43.3289         0.370601        -44.1894          0.70457        0.222362         0.326203          151.19
                        0.333955         147.536
                        0.384368        -42.9396         0.376412        -44.1567         0.326196          151.19         0.706028         5.00857
                        0.321167         155.864
                        0.384852        -43.6431         0.377689        -45.0659         0.333947         147.536         0.321167         155.864
                        0.700922         2.03817
0.6607                   0.65373         1.03161         0.357202          155.68         0.379221        -43.4977          0.38405        -43.1881
                        0.384675        -43.9533
                        0.357483         155.465         0.668138        -2.03286         0.369843        -44.4413         0.375779        -44.4191
                        0.377087        -45.3434
                        0.379575        -43.6652         0.370214        -44.5335         0.705854        0.145218         0.325096         151.015
                        0.332958         147.326
                        0.384221         -43.276         0.376106        -44.5024         0.325088         151.016         0.707285         4.96545
                        0.319997         155.745
                        0.384733        -43.9866         0.377396        -45.4196          0.33295         147.326         0.319997         155.745
                        0.702127         1.97322
0.66605                 0.654291        0.993705         0.356693         155.531         0.379034        -43.8331         0.383937        -43.5242
                        0.384568         -44.297
                        0.356901         155.316         0.668862        -2.09609         0.369487        -44.7833         0.375502         -44.763
                        0.376821        -45.6954
                        0.379327        -44.0014         0.369824        -44.8773         0.707135       0.0667669         0.323984         150.843
                        0.331958         147.116
                        0.384075        -43.6123         0.375799        -44.8478         0.323976         150.843         0.708538         4.92097
                        0.318824         155.628
                        0.384614        -44.3303         0.377102        -45.7731          0.33195         147.117         0.318824         155.628
                        0.703326         1.90691
0.6714                  0.654848        0.955113         0.356185         155.382         0.378847        -44.1687         0.383823        -43.8606
                        0.384462         -44.641
                         0.35632         155.168         0.669587        -2.15973         0.369129        -45.1253         0.375224        -45.1068
                        0.376555        -46.0472
                         0.37908        -44.3372         0.369432        -45.2209         0.708413      -0.0129719         0.322869         150.672
                        0.330954         146.909
                         0.38393        -43.9487          0.37549         -45.193         0.322861         150.672         0.709785         4.87515
                        0.317647         155.514
                        0.384495        -44.6742         0.376806        -46.1263         0.330947         146.909         0.317647         155.514
                        0.704521         1.83925
0.67675                 0.655402         0.91584         0.355677         155.234          0.37866        -44.5045          0.38371        -44.1973
                        0.384355        -44.9853
                         0.35574         155.021         0.670313        -2.22381         0.368769        -45.4674         0.374945        -45.4506
                        0.376287        -46.3991
                        0.378833        -44.6729         0.369039        -45.5643         0.709686      -0.0939778          0.32175         150.503
                        0.329948         146.704
                        0.383785        -44.2852          0.37518         -45.538         0.321743         150.504         0.711027         4.82801
                        0.316468         155.403
                        0.384377        -45.0183          0.37651        -46.4792          0.32994         146.704         0.316468         155.403
                         0.70571         1.77027
0.6821                  0.655952        0.875894         0.355169         155.087         0.378472        -44.8406         0.383596        -44.5342
                        0.384249        -45.3299
                        0.355162         154.875         0.671039        -2.28831         0.368408        -45.8095         0.374665        -45.7945
                        0.376018        -46.7509
                        0.378587        -45.0083         0.368644        -45.9074         0.710955        -0.17623         0.320628         150.337
                        0.328938           146.5
                         0.38364        -44.6217         0.374869        -45.8827         0.320621         150.337         0.712263         4.77958
                        0.315287         155.294
                        0.384259        -45.3626         0.376212        -46.8319          0.32893           146.5         0.315287         155.294
                        0.706893         1.69999
0.68745                 0.656498        0.835281         0.354661          154.94         0.378284        -45.1769         0.383483        -44.8715
                        0.384142        -45.6747
                        0.354586         154.731         0.671766        -2.35326         0.368045        -46.1517         0.374383        -46.1383
                        0.375747        -47.1026
                        0.378342        -45.3436         0.368247        -46.2504          0.71222       -0.259709         0.319504         150.172
                        0.327925         146.298
                        0.383496        -44.9582         0.374557        -46.2273         0.319496         150.172         0.713493         4.72988
                        0.314103         155.189
                        0.384141        -45.7071         0.375914        -47.1843         0.327917         146.298         0.314103         155.189
                        0.708071         1.62843
0.6928                  0.657041        0.794007         0.354153         154.794         0.378096        -45.5134         0.383369         -45.209
                        0.384036        -46.0198
                        0.354011         154.587         0.672495        -2.41866         0.367679        -46.4938           0.3741        -46.4822
                        0.375476        -47.4543
                        0.378096        -45.6786         0.367848        -46.5931          0.71348       -0.344392         0.318376          150.01
                        0.326909         146.098
                        0.383353        -45.2948         0.374243        -46.5716         0.318369          150.01         0.714717         4.67892
                        0.312918         155.085
                        0.384023        -46.0518         0.375614        -47.5364         0.326902         146.098         0.312918         155.085
                        0.709242          1.5556
0.69815                 0.657579         0.75208         0.353646         154.648         0.377907        -45.8501         0.383255        -45.5467
                        0.383929        -46.3652
                        0.353439         154.445         0.673224        -2.48452         0.367312        -46.8361         0.373816        -46.8261
                        0.375203        -47.8059
                        0.377852        -46.0134         0.367448        -46.9356         0.714736        -0.43026         0.317246          149.85
                        0.325891           145.9
                         0.38321        -45.6314         0.373928        -46.9156         0.317239          149.85         0.715934         4.62673
                        0.311731         154.985
                        0.383906        -46.3966         0.375313        -47.8883         0.325884           145.9         0.311731         154.985
                        0.710408         1.48154
0.7035                  0.658113        0.709505         0.353139         154.504         0.377717         -46.187         0.383141        -45.8847
                        0.383821        -46.7108
                        0.352868         154.305         0.673954        -2.55085         0.366942        -47.1783          0.37353        -47.1699
                        0.374929        -48.1575
                        0.377608         -46.348         0.367045        -47.2778         0.715986       -0.517292         0.316114         149.691
                        0.324871         145.704
                        0.383067        -45.9681         0.373612        -47.2594         0.316107         149.692         0.717145         4.57333
                        0.310542         154.887
                        0.383788        -46.7417         0.375012        -48.2398         0.324863         145.704         0.310542         154.887
                        0.711566         1.40626
0.70885                 0.658643         0.66629         0.352632          154.36         0.377527        -46.5242         0.383026         -46.223
                        0.383713        -47.0566
                          0.3523         154.165         0.674686        -2.61765         0.366571        -47.5205         0.373242        -47.5137
                        0.374654         -48.509
                        0.377365        -46.6824         0.366641        -47.6199         0.717231       -0.605465          0.31498         149.535
                        0.323848         145.509
                        0.382925        -46.3048         0.373295         -47.603         0.314972         149.535          0.71835         4.51874
                        0.309353         154.792
                         0.38367        -47.0869         0.374709        -48.5911         0.323841         145.509         0.309353         154.792
                        0.712719         1.32978
0.7142                  0.659169        0.622442         0.352125         154.216         0.377336        -46.8615         0.382911        -46.5615
                        0.383605        -47.4027
                        0.351734         154.027         0.675419        -2.68493         0.366197        -47.8628         0.372953        -47.8575
                        0.374378        -48.8604
                        0.377122        -47.0167         0.366235        -47.9616         0.718471        -0.69476         0.313843         149.381
                        0.322823         145.317
                        0.382783        -46.6416         0.372976        -47.9463         0.313836         149.381         0.719547         4.46297
                        0.308162           154.7
                        0.383551        -47.4322         0.374405        -48.9422         0.322816         145.317         0.308162           154.7
                        0.713864         1.25211
0.71955                  0.65969        0.577968         0.351619         154.074         0.377143        -47.1991         0.382795        -46.9002
                        0.383496        -47.7491
                        0.351171         153.889         0.676152        -2.75272          0.36582         -48.205         0.372662        -48.2012
                          0.3741        -49.2117
                        0.376881        -47.3508         0.365827        -48.3032         0.719705       -0.785156         0.312705          149.23
                        0.321797         145.126
                        0.382641        -46.9784         0.372657        -48.2894         0.312697          149.23         0.720738         4.40607
                        0.306971          154.61
                        0.383433        -47.7778         0.374101        -49.2929         0.321789         145.126         0.306971          154.61
                        0.715002          1.1733
0.7249                  0.660206        0.532874         0.351112         153.932          0.37695        -47.5368         0.382678        -47.2392
                        0.383386        -48.0956
                         0.35061         153.753         0.676887          -2.821         0.365442        -48.5472          0.37237         -48.545
                        0.373821        -49.5629
                        0.376639        -47.6847         0.365418        -48.6445         0.720933       -0.876631         0.311565          149.08
                        0.320769         144.937
                        0.382499        -47.3152         0.372336        -48.6322         0.311558          149.08         0.721921         4.34803
                        0.305779         154.523
                        0.383314        -48.1235         0.373796        -49.6434         0.320761         144.937         0.305779         154.523
                        0.716133         1.09334
0.73025                 0.660718         0.48717         0.350606          153.79         0.376755        -47.8747         0.382561        -47.5784
                        0.383276        -48.4424
                        0.350052         153.618         0.677623         -2.8898          0.36506        -48.8894         0.372075        -48.8886
                         0.37354        -49.9141
                        0.376399        -48.0185         0.365006        -48.9855         0.722156       -0.969165         0.310424         148.932
                        0.319739          144.75
                        0.382358        -47.6521         0.372014        -48.9748         0.310416         148.932         0.723096         4.28889
                        0.304587         154.439
                        0.383195        -48.4693         0.373489        -49.9936         0.319731          144.75         0.304587         154.439
                        0.717257         1.01226
0.7356                  0.661225        0.440861           0.3501          153.65          0.37656        -48.2128         0.382442        -47.9177
                        0.383165        -48.7894
                        0.349497         153.484          0.67836        -2.95913         0.364677        -49.2316         0.371779        -49.2322
                        0.373258        -50.2651
                        0.376159        -48.3522         0.364593        -49.3263         0.723372        -1.06274         0.309281         148.787
                        0.318708         144.565
                        0.382217        -47.9891         0.371691        -49.3171         0.309274         148.787         0.724264         4.22866
                        0.303395         154.358
                        0.383076        -48.8153         0.373183        -50.3435           0.3187         144.565         0.303395         154.358
                        0.718373         0.93009
0.74095                 0.661727        0.393955         0.349594          153.51         0.376362         -48.551         0.382323        -48.2573
                        0.383053        -49.1366
                        0.348945         153.351         0.679098        -3.02899         0.364291        -49.5737         0.371482        -49.5757
                        0.372975        -50.6161
                         0.37592        -48.6857         0.364178        -49.6668         0.724582        -1.15733         0.308137         148.644
                        0.317675         144.382
                        0.382076        -48.3261         0.371367        -49.6592          0.30813         148.644         0.725425         4.16736
                        0.302203          154.28
                        0.382956        -49.1615         0.372875        -50.6931         0.317668         144.382         0.302203          154.28
                        0.719482        0.846838
0.7463                  0.662224        0.346459         0.349088         153.371         0.376164        -48.8893         0.382203         -48.597
                         0.38294        -49.4839
                        0.348395         153.219         0.679836        -3.09939         0.363902        -49.9157         0.371182        -49.9192
                         0.37269        -50.9669
                        0.375681        -49.0191         0.363762        -50.0071         0.725786        -1.25292         0.306993         148.503
                        0.316642         144.201
                        0.381935        -48.6631         0.371042         -50.001         0.306986         148.503         0.726577         4.10502
                        0.301011         154.205
                        0.382835        -49.5077         0.372567        -51.0425         0.316634         144.201         0.301011         154.205
                        0.720583        0.762528
0.75165                 0.662716        0.298382         0.348582         153.232         0.375964        -49.2278         0.382081        -48.9369
                        0.382826        -49.8314
                        0.347849         153.088         0.680576        -3.17034         0.363511        -50.2577         0.370881        -50.2626
                        0.372404        -51.3176
                        0.375443        -49.3523         0.363344        -50.3471         0.726984        -1.34948         0.305848         148.364
                        0.315607         144.021
                        0.381794        -49.0002         0.370717        -50.3425          0.30584         148.364         0.727721         4.04166
                         0.29982         154.132
                        0.382715        -49.8541         0.372258        -51.3916           0.3156         144.021          0.29982         154.132
                        0.721675        0.677179
0.757                   0.663203        0.249731         0.348076         153.095         0.375763        -49.5665         0.381959         -49.277
                        0.382711        -50.1791
                        0.347305         152.958         0.681317        -3.24185         0.363117        -50.5996         0.370578        -50.6059
                        0.372117        -51.6682
                        0.375206        -49.6854         0.362924        -50.6868         0.728175        -1.44701         0.304702         148.227
                        0.314572         143.844
                        0.381653        -49.3374          0.37039        -50.6838         0.304694         148.228         0.728858         3.97728
                        0.298629         154.062
                        0.382593        -50.2007         0.371948        -51.7404         0.314564         143.844         0.298629         154.062
                         0.72276        0.590809
0.76235                 0.663684        0.200514         0.347571         152.958          0.37556        -49.9052         0.381835        -49.6172
                        0.382595        -50.5269
                        0.346765          152.83         0.682058        -3.31393         0.362721        -50.9414         0.370273         -50.949
                        0.371828        -52.0187
                         0.37497        -50.0185         0.362503        -51.0263         0.729359        -1.54547         0.303555         148.093
                        0.313536         143.668
                        0.381513        -49.6745         0.370062        -51.0249         0.303548         148.093         0.729986         3.91192
                        0.297439         153.995
                        0.382471        -50.5473         0.371638        -52.0889         0.313528         143.668         0.297439         153.995
                        0.723837        0.503438
0.7677                   0.66416        0.150739         0.347065         152.821         0.375355         -50.244         0.381711        -49.9576
                        0.382478        -50.8749
                        0.346228         152.702         0.682801        -3.38659         0.362322        -51.2831         0.369967        -51.2921
                        0.371538         -52.369
                        0.374734        -50.3514          0.36208        -51.3654         0.730537        -1.64485         0.302408         147.961
                        0.312499         143.495
                        0.381372        -50.0117         0.369734        -51.3656         0.302401         147.961         0.731106         3.84559
                        0.296251         153.932
                        0.382349         -50.894         0.371328        -52.4372         0.312492         143.495         0.296251         153.932
                        0.724905        0.415083
0.77305                  0.66463        0.100413          0.34656         152.686         0.375149        -50.5829         0.381585        -50.2981
                         0.38236         -51.223
                        0.345694         152.575         0.683544        -3.45984          0.36192        -51.6247         0.369658         -51.635
                        0.371246        -52.7192
                        0.374499        -50.6842         0.361655        -51.7044         0.731708        -1.74513         0.301261         147.831
                        0.311462         143.323
                        0.381231         -50.349         0.369404        -51.7062         0.301254         147.831         0.732217         3.77831
                        0.295064         153.871
                        0.382226        -51.2409         0.371017        -52.7852         0.311454         143.323         0.295064         153.871
                        0.725965        0.325763
0.7784                  0.665095       0.0495444         0.346055         152.551         0.374941        -50.9219         0.381458        -50.6387
                        0.382241        -51.5713
                        0.345163         152.449         0.684287        -3.53369         0.361516        -51.9661         0.369348        -51.9779
                        0.370953        -53.0692
                        0.374264         -51.017         0.361229         -52.043         0.732872         -1.8463         0.300114         147.703
                        0.310424         143.153
                        0.381091        -50.6863         0.369074        -52.0464         0.300107         147.703          0.73332          3.7101
                        0.293878         153.813
                        0.382102        -51.5878         0.370705        -53.1329         0.310417         143.153         0.293878         153.813
                        0.727017        0.235495
0.78375                 0.665554     -0.00185826          0.34555         152.417         0.374731         -51.261          0.38133        -50.9794
                        0.382121        -51.9196
                        0.344635         152.324         0.685031        -3.60813         0.361109        -52.3074         0.369036        -52.3205
                        0.370659        -53.4191
                        0.374031        -51.3497         0.360802        -52.3813         0.734029        -1.94833         0.298967         147.577
                        0.309386         142.985
                        0.380951        -51.0236         0.368743        -52.3864          0.29896         147.578         0.734414         3.64098
                        0.292693         153.757
                        0.381978        -51.9348         0.370393        -53.4803         0.309379         142.985         0.292693         153.757
                         0.72806        0.144297
0.7891                  0.666007      -0.0537871         0.345045         152.284          0.37452        -51.6001           0.3812        -51.3202
                           0.382         -52.268
                        0.344111           152.2         0.685775        -3.68319         0.360699        -52.6486         0.368722        -52.6631
                        0.370364        -53.7688
                        0.373798        -51.6823         0.360373        -52.7194         0.735179        -2.05121          0.29782         147.454
                        0.308348         142.819
                         0.38081        -51.3609         0.368412        -52.7261         0.297813         147.454           0.7355         3.57096
                        0.291511         153.705
                        0.381853        -52.2819         0.370081        -53.8275         0.308341         142.819         0.291511         153.705
                        0.729094        0.052185
0.79445                 0.666455       -0.106234         0.344541         152.152         0.374307        -51.9392         0.381069         -51.661
                        0.381877        -52.6165
                         0.34359         152.076         0.686519        -3.75887         0.360287        -52.9896         0.368407        -53.0055
                        0.370067        -54.1183
                        0.373565        -52.0148         0.359942        -53.0572         0.736323        -2.15491         0.296674         147.333
                         0.30731         142.655
                         0.38067        -51.6983          0.36808        -53.0656         0.296667         147.333         0.736577         3.50005
                         0.29033         153.656
                        0.381728        -52.6291         0.369769        -54.1744         0.307303         142.655          0.29033         153.656
                         0.73012      -0.0408243
0.7998                  0.666896       -0.159191         0.344037          152.02         0.374092        -52.2784         0.380937        -52.0019
                        0.381754        -52.9651
                        0.343073         151.954         0.687264        -3.83517         0.359872        -53.3304         0.368089        -53.3477
                        0.369769        -54.4677
                        0.373333        -52.3473          0.35951        -53.3946         0.737459        -2.25943         0.295528         147.214
                        0.306272         142.493