! IGNION VIRTUAL ANTENNA LIBRARY
!
! NN_TRIO_B80x70_C70x12
! Virtual Antenna™ TRIO mXTEND™: NN03-310 30.0mm x 3.0mm x 1.0mm
! https://ignion.io/product/trio-mxtend/
! Board: 80mm x 70mm
! Clearance Area: 70mm x 12mm
! Feeding line: straight line; 9mm x 1mm
! Applications: Smartphone, Fleet management, IoT
! Frequency range 0.65GHz to 6GHz, step ~5MHz
! Number of ports 5
!
! This product and its use are protected by at least one or more of the following patents and
! patent applications PAT. US 2020/0176855 A1; WO 2019/008171 A1; and other domestic and international
! patents pending. Additional information about patents related to this product is available at 
! https://ignion.io/files/Patent-list-NN.pdf, all rights reserved. Copyright, Ignion 2021.
!
! Need more help? Your platform is much different than these examples in the manual? Use our 
! Fast Track service (https://ignion.io/fast-track/), for free, and get a personalized antenna design in
! just 24 hours.
!
!
! Touchstone port 1 = CST MWS port 1 ("Series Feeding Port 1")
! Touchstone port 2 = CST MWS port 2 ("Series in-Trio Port 1")
! Touchstone port 3 = CST MWS port 3 ("Series in-Trio Port 2")
! Touchstone port 4 = CST MWS port 4 ("Series Port in Feeding line of Port 2")
! Touchstone port 5 = CST MWS port 5 ("Series Feeding Port 2")
!
! CST MICROWAVE STUDIO 2019
# GHz S MA R 50
! Nport = 5
0.65                    0.642702       0.0268509         0.365202         156.572         0.383278        -43.5195         0.387892        -43.3065
                        0.389157        -44.1353
                        0.364179         156.378         0.659183        -3.03466         0.372346         -44.595          0.37842        -44.3793
                        0.379543        -45.3852
                         0.38341        -43.4844         0.372122        -44.7357         0.700873       -0.995297          0.32779         151.789
                        0.334193          148.06
                        0.388472        -43.2134          0.37777         -44.659         0.326733         151.659         0.700217         4.08587
                         0.32211         156.922
                        0.389168        -44.1354          0.37888        -45.6787         0.333984         148.025         0.323181         157.024
                        0.696173        0.933184
0.65535                 0.643086      -0.0209349          0.36482         156.413         0.383096        -43.8782         0.387783         -43.664
                        0.389095        -44.5087
                        0.363736         156.231         0.659886        -3.09737         0.371941        -44.9516         0.378139        -44.7428
                        0.379279        -45.7579
                         0.38324        -43.8444         0.371668        -45.0888         0.702089        -1.08537         0.326709         151.623
                        0.333181         147.867
                        0.388395         -43.577         0.377391        -45.0139         0.325617         151.505         0.701403         4.03745
                        0.320954         156.832
                        0.389106        -44.5089         0.378512        -46.0425         0.332961         147.835         0.322049          156.92
                        0.697286        0.853675
0.6607                  0.643458      -0.0692274         0.364437         156.254          0.38291        -44.2372         0.387674        -44.0219
                        0.389029        -44.8829
                        0.363296         156.085         0.660591        -3.16069         0.371534         -45.308         0.377854        -45.1065
                         0.37901        -46.1309
                        0.383066        -44.2049         0.371213        -45.4413         0.703298        -1.17654         0.325624         151.458
                        0.332169         147.677
                        0.388313        -43.9414         0.377012        -45.3681         0.324504         151.354         0.702585         3.98762
                          0.3198         156.745
                         0.38904        -44.8831         0.378145        -46.4058         0.331941         147.647         0.320913          156.82
                        0.698388         0.77289
0.66605                 0.643819       -0.117985         0.364052         156.096         0.382721        -44.5966         0.387563        -44.3804
                        0.388959        -45.2579
                         0.36286          155.94         0.661298        -3.22461         0.371123        -45.6642         0.377564        -45.4704
                        0.378736        -46.5041
                        0.382888        -44.5658         0.370758        -45.7933           0.7045        -1.26878         0.324536         151.296
                        0.331159         147.489
                        0.388227        -44.3064         0.376634        -45.7219         0.323392         151.205         0.703761         3.93639
                        0.318649          156.66
                         0.38897        -45.2581         0.377778        -46.7685         0.330922         147.462         0.319775         156.722
                         0.69948        0.690863
0.6714                  0.644168       -0.167165         0.363665         155.938         0.382528        -44.9563          0.38745        -44.7394
                        0.388884        -45.6336
                        0.362429         155.795         0.662008        -3.28915         0.370711        -46.0202          0.37727        -45.8344
                        0.378458        -46.8774
                        0.382706        -44.9271         0.370302        -46.1447         0.705695        -1.36207         0.323445         151.136
                        0.330149         147.303
                        0.388137        -44.6721         0.376256        -46.0751         0.322282         151.058         0.704933         3.88378
                          0.3175         156.579
                        0.388895        -45.6338         0.377412        -47.1308         0.329905         147.279         0.318634         156.627
                        0.700562        0.607628
0.67675                 0.644506       -0.216727         0.363277         155.781         0.382332        -45.3164         0.387336        -45.0989
                        0.388805          -46.01
                        0.362001         155.651          0.66272        -3.35432         0.370296         -46.376         0.376971        -46.1985
                        0.378176         -47.251
                        0.382519        -45.2888         0.369847        -46.4956         0.706882        -1.45636          0.32235         150.977
                         0.32914          147.12
                        0.388042        -45.0383         0.375879        -46.4279         0.321174         150.913         0.706098         3.82979
                        0.316353         156.501
                        0.388816        -46.0102         0.377047        -47.4926          0.32889         147.098         0.317491         156.535
                        0.701634        0.523218
0.6821                  0.644832       -0.266631         0.362887         155.624         0.382132        -45.6767         0.387221        -45.4589
                        0.388721        -46.3871
                        0.361578         155.509         0.663434        -3.42013         0.369878        -46.7317         0.376667        -46.5628
                        0.377889        -47.6247
                        0.382328        -45.6508         0.369391        -46.8461         0.708062        -1.55163         0.321253         150.821
                        0.328132         146.938
                        0.387943        -45.4052         0.375502        -46.7803         0.320068         150.771         0.707258         3.77444
                         0.31521         156.426
                        0.388733        -46.3873         0.376683        -47.8539         0.327877         146.919         0.316346         156.446
                        0.702695        0.437665
0.68745                 0.645145       -0.316835         0.362496         155.468         0.381928        -46.0373         0.387103        -45.8194
                        0.388633        -46.7649
                        0.361159         155.366          0.66415        -3.48659         0.369458        -47.0872         0.376358        -46.9272
                        0.377598        -47.9985
                        0.382132        -46.0132         0.368935        -47.1961         0.709235        -1.64784         0.320153         150.668
                        0.327126         146.758
                        0.387839        -45.7726         0.375125        -47.1323         0.318965         150.631         0.708412         3.71775
                         0.31407         156.354
                        0.388645        -46.7651          0.37632        -48.2149         0.326867         146.742         0.315199         156.361
                        0.703746        0.350999
0.6928                  0.645447       -0.367301         0.362104         155.312         0.381721        -46.3982         0.386984        -46.1804
                         0.38854        -47.1434
                        0.360744         155.225         0.664868        -3.55371         0.369036        -47.4425         0.376045        -47.2916
                        0.377302        -48.3724
                        0.381932        -46.3759         0.368479        -47.5457         0.710401        -1.74498         0.319051         150.516
                        0.326121         146.581
                         0.38773        -46.1406          0.37475        -47.4838         0.317864         150.494         0.709559         3.65974
                        0.312934         156.285
                        0.388551        -47.1435         0.375958        -48.5755         0.325859         146.567         0.314051         156.278
                        0.704786        0.263251
0.69815                 0.645738       -0.417991          0.36171         155.157         0.381509        -46.7593         0.386863        -46.5419
                        0.388442        -47.5224
                        0.360333         155.084         0.665587        -3.62149         0.368611        -47.7976         0.375727        -47.6561
                        0.377001        -48.7465
                        0.381727        -46.7389         0.368024        -47.8949         0.711559        -1.84301         0.317947         150.367
                        0.325118         146.405
                        0.387616        -46.5091         0.374375        -47.8351         0.316766         150.358         0.710699         3.60041
                        0.311801         156.218
                        0.388453        -47.5226         0.375597        -48.9358         0.324854         146.395         0.312902         156.198
                        0.705816        0.174448
0.7035                  0.646016       -0.468865         0.361315         155.003         0.381294        -47.1206          0.38674        -46.9039
                        0.388339         -47.902
                        0.359928         154.944         0.666308        -3.68995         0.368184        -48.1526         0.375404        -48.0206
                        0.376696        -49.1206
                        0.381517        -47.1021         0.367568        -48.2437          0.71271        -1.94191         0.316841          150.22
                        0.324116         146.232
                        0.387497        -46.8781         0.374001         -48.186         0.315671         150.225         0.711832         3.53979
                        0.310672         156.155
                         0.38835        -47.9022         0.375237        -49.2957         0.323852         146.224         0.311753         156.122
                        0.706834       0.0846197
0.70885                 0.646283       -0.519887         0.360919         154.849         0.381075        -47.4822         0.386614        -47.2664
                         0.38823        -48.2822
                        0.359526         154.805         0.667029        -3.75908         0.367754        -48.5074         0.375076        -48.3852
                        0.376385        -49.4947
                        0.381303        -47.4656         0.367112        -48.5921         0.713854        -2.04166         0.315733         150.076
                        0.323116          146.06
                        0.387374        -47.2475         0.373628        -48.5366         0.314578         150.093         0.712957         3.47789
                        0.309547         156.095
                        0.388242        -48.2824         0.374878        -49.6555         0.322852         146.055         0.310603         156.049
                        0.707842     -0.00620899
0.7142                  0.646538       -0.571021         0.360522         154.696         0.380852        -47.8439         0.386486        -47.6294
                        0.388117         -48.663
                        0.359129         154.666         0.667752        -3.82889         0.367322        -48.8621         0.374744        -48.7497
                        0.376071        -49.8689
                        0.381084        -47.8293         0.366657        -48.9403         0.714991        -2.14223         0.314623         149.933
                        0.322118         145.891
                        0.387245        -47.6174         0.373256         -48.887         0.313488         149.964         0.714075         3.41472
                        0.308426         156.037
                        0.388128        -48.6632         0.374521         -50.015         0.321855         145.889         0.309453         155.979
                        0.708839      -0.0980123
0.71955                 0.646782        -0.62223         0.360124         154.544         0.380625        -48.2058         0.386356        -47.9929
                        0.387998        -49.0443
                        0.358737         154.528         0.668476         -3.8994         0.366888        -49.2166         0.374407        -49.1142
                        0.375751        -50.2432
                         0.38086        -48.1932         0.366202        -49.2881         0.716121         -2.2436         0.313512         149.793
                        0.321122         145.723
                        0.387111        -47.9877         0.372885        -49.2372         0.312402         149.837         0.715185         3.35032
                         0.30731         155.983
                        0.388009        -49.0444         0.374165        -50.3743         0.320861         145.724         0.308304         155.913
                        0.709825       -0.190766
0.7249                  0.647014        -0.67348         0.359726         154.393         0.380394        -48.5679         0.386223         -48.357
                        0.387874         -49.426
                         0.35835          154.39         0.669201        -3.97059         0.366451        -49.5709         0.374065        -49.4787
                        0.375427        -50.6174
                        0.380632        -48.5573         0.365747        -49.6357         0.717244        -2.34574           0.3124         149.656
                        0.320128         145.558
                        0.386971        -48.3583         0.372514        -49.5872         0.311318         149.712         0.716286         3.28468
                        0.306197         155.931
                        0.387885        -49.4262          0.37381        -50.7334          0.31987         145.561         0.307155          155.85
                        0.710801       -0.284448
0.73025                 0.647234       -0.724738         0.359327         154.242         0.380159        -48.9302         0.386088        -48.7215
                        0.387744        -49.8083
                        0.357967         154.253         0.669925        -4.04247         0.366011        -49.9251         0.373718        -49.8431
                        0.375098        -50.9916
                        0.380398        -48.9215         0.365293         -49.983          0.71836        -2.44866         0.311286         149.521
                        0.319136         145.394
                        0.386827        -48.7294         0.372145         -49.937         0.310237         149.589         0.717379         3.21784
                         0.30509         155.883
                        0.387756        -49.8085         0.373456        -51.0925         0.318882           145.4         0.306008          155.79
                        0.711765       -0.379035
0.7356                  0.647444       -0.775971         0.358928         154.092         0.379919        -49.2926          0.38595        -49.0865
                        0.387609         -50.191
                        0.357588         154.116          0.67065        -4.11504          0.36557        -50.2792         0.373366        -50.2075
                        0.374764        -51.3658
                         0.38016        -49.2858         0.364839        -50.3301         0.719469        -2.55231         0.310172         149.388
                        0.318146         145.232
                        0.386677        -49.1008         0.371776        -50.2867         0.309158         149.468         0.718463         3.14981
                        0.303986         155.837
                        0.387621        -50.1911         0.373104        -51.4514         0.317897         145.241         0.304861         155.734
                        0.712719       -0.474507
0.74095                 0.647642       -0.827145         0.358529         153.943         0.379677        -49.6551         0.385809         -49.452
                        0.387469        -50.5741
                        0.357214          153.98         0.671375         -4.1883         0.365126        -50.6331          0.37301        -50.5718
                        0.374425          -51.74
                        0.379918        -49.6503         0.364384         -50.677         0.720571        -2.65669         0.309058         149.258
                        0.317158         145.072
                        0.386522        -49.4725         0.371409        -50.6363         0.308083         149.349         0.719538         3.08061
                        0.302888         155.794
                         0.38748        -50.5743         0.372752        -51.8103         0.316915         145.084         0.303717         155.681
                        0.713661       -0.570845
0.7463                   0.64783       -0.878231          0.35813         153.794          0.37943        -50.0177         0.385665        -49.8181
                        0.387323        -50.9576
                        0.356845         153.844           0.6721        -4.26225         0.364679        -50.9868         0.372649        -50.9359
                        0.374082        -52.1141
                         0.37967        -50.0149          0.36393        -51.0238         0.721667        -2.76179         0.307943          149.13
                        0.316172         144.914
                        0.386362        -49.8445         0.371042        -50.9859         0.307011         149.231         0.720603         3.01026
                        0.301795         155.754
                        0.387335        -50.9578         0.372402        -52.1692         0.315936         144.928         0.302574         155.631
                        0.714593        -0.66803
0.75165                 0.648006       -0.929198         0.357731         153.647         0.379179        -50.3804         0.385518        -50.1846
                        0.387172        -51.3416
                        0.356481         153.709         0.672824        -4.33689          0.36423        -51.3405         0.372283        -51.2999
                        0.373734        -52.4882
                        0.379418        -50.3795         0.363477        -51.3704         0.722756        -2.86759         0.306827         149.004
                        0.315189         144.758
                        0.386196        -50.2168         0.370676        -51.3354         0.305941         149.116         0.721659         2.93877
                        0.300706         155.717
                        0.387184        -51.3417         0.372052        -52.5282          0.31496         144.774         0.301434         155.586
                        0.715513       -0.766044
0.757                   0.648172       -0.980018         0.357333           153.5         0.378924        -50.7433         0.385367        -50.5516
                        0.387016        -51.7259
                        0.356121         153.574         0.673548        -4.41221         0.363778         -51.694         0.371912        -51.6638
                        0.373381        -52.8622
                        0.379161        -50.7442         0.363023        -51.7169         0.723839        -2.97408         0.305712         148.881
                        0.314207         144.604
                        0.386026        -50.5894          0.37031        -51.6849         0.304874         149.003         0.722705         2.86617
                        0.299622         155.682
                        0.387027        -51.7261         0.371704        -52.8871         0.313986         144.622         0.300297         155.543
                        0.716423       -0.864873
0.76235                 0.648327        -1.03066         0.356935         153.354         0.378665        -51.1062         0.385214        -50.9191
                        0.386853        -52.1105
                        0.355766         153.439         0.674271        -4.48821         0.363324        -52.0474         0.371537        -52.0276
                        0.373024         -53.236
                          0.3789         -51.109         0.362569        -52.0634         0.724915        -3.08125         0.304597         148.761
                        0.313228         144.451
                        0.385849        -50.9622         0.369945        -52.0345          0.30381         148.891         0.723741         2.79247
                        0.298544         155.651
                        0.386865        -52.1107         0.371356        -53.2462         0.313015         144.472         0.299163         155.505
                        0.717322       -0.964499
0.7677                  0.648472         -1.0811         0.356539         153.209         0.378402        -51.4692         0.385057         -51.287
                        0.386686        -52.4955
                        0.355415         153.305         0.674992        -4.56488         0.362868        -52.4006         0.371157        -52.3912
                        0.372662        -53.6098
                        0.378634        -51.4738         0.362115        -52.4098         0.725985        -3.18908         0.303482         148.643
                         0.31225         144.301
                        0.385668        -51.3353          0.36958        -52.3841         0.302748         148.782         0.724766          2.7177
                        0.297471         155.622
                        0.386697        -52.4957         0.371009        -53.6054         0.312047         144.324         0.298032         155.469
                         0.71821        -1.06491
0.77305                 0.648607        -1.13131         0.356143         153.065         0.378136        -51.8322         0.384897        -51.6555
                        0.386513        -52.8808
                        0.355069         153.171         0.675713        -4.64222         0.362409        -52.7538         0.370773        -52.7546
                        0.372296        -53.9835
                        0.378363        -51.8386         0.361661        -52.7561         0.727049        -3.29758         0.302368         148.528
                        0.311275         144.152
                        0.385482        -51.7085         0.369216        -52.7338          0.30169         148.674          0.72578         2.64188
                        0.296403         155.597
                        0.386524         -52.881         0.370663        -53.9648         0.311082         144.177         0.296906         155.438
                        0.719086        -1.16609
0.7784                  0.648731        -1.18127         0.355749         152.921         0.377865        -52.1953         0.384733        -52.0244
                        0.386334        -53.2665
                        0.354727         153.037         0.676432        -4.72022         0.361947        -53.1068         0.370384        -53.1178
                        0.371925         -54.357
                        0.378088        -52.2034         0.361207        -53.1024         0.728106        -3.40673         0.301255         148.415
                        0.310301         144.005
                         0.38529         -52.082         0.368852        -53.0836         0.300633         148.568         0.726784         2.56502
                         0.29534         155.574
                        0.386346        -53.2667         0.370317        -54.3243         0.310119         144.032         0.295783          155.41
                        0.719952        -1.26803
0.78375                 0.648846        -1.23094         0.355356         152.778         0.377591        -52.5584         0.384565        -52.3938
                         0.38615        -53.6524
                         0.35439         152.903         0.677149        -4.79886         0.361483        -53.4597         0.369991        -53.4808
                        0.371549        -54.7304
                        0.377809        -52.5682         0.360753        -53.4488         0.729158        -3.51652         0.300142         148.305
                         0.30933          143.86
                        0.385093        -52.4556         0.368488        -53.4336         0.299579         148.464         0.727777         2.48715
                        0.294283         155.554
                        0.386162        -53.6526         0.369971         -54.684         0.309159         143.889         0.294665         155.386
                        0.720807        -1.37072
0.7891                  0.648952        -1.28031         0.354965         152.637         0.377312        -52.9216         0.384394        -52.7637
                        0.385961        -54.0386
                        0.354057          152.77         0.677864        -4.87815         0.361016        -53.8125         0.369593        -53.8437
                        0.371169        -55.1036
                        0.377525        -52.9329         0.360298        -53.7952         0.730204        -3.62696         0.299031         148.197
                        0.308361         143.717
                        0.384891        -52.8294         0.368124        -53.7837         0.298527         148.362         0.728758         2.40828
                        0.293231         155.537
                        0.385972        -54.0388         0.369625         -55.044         0.308201         143.747         0.293552         155.365
                        0.721651        -1.47414
0.79445                 0.649047        -1.32935         0.354576         152.496          0.37703        -53.2848         0.384218         -53.134
                        0.385766        -54.4251
                        0.353729         152.637         0.678577        -4.95807         0.360547        -54.1652         0.369191        -54.2063
                        0.370784        -55.4767
                        0.377236        -53.2977         0.359842        -54.1416         0.731244        -3.73803         0.297921         148.092
                        0.307394         143.576
                        0.384684        -53.2034          0.36776        -54.1341         0.297478         148.262         0.729728         2.32844
                        0.292185         155.523
                        0.385778        -54.4252          0.36928        -55.4043         0.307245         143.607         0.292445         155.349
                        0.722484        -1.57829
0.7998                  0.649134        -1.37805         0.354189         152.356         0.376745        -53.6481         0.384039        -53.5048
                        0.385566        -54.8118
                        0.353405         152.504         0.679288         -5.0386         0.360074        -54.5177         0.368784        -54.5686
                        0.370395        -55.8497
                        0.376944        -53.6624         0.359386        -54.4881         0.732277        -3.84974         0.296812          147.99
                        0.306429         143.436