! IGNION VIRTUAL ANTENNA LIBRARY
!
! NN_TRIO_B50x35_C35x12
! Virtual Antenna™ TRIO mXTEND™: NN03-310 30.0mm x 3.0mm x 1.0mm
! https://ignion.io/product/trio-mxtend/
! Board: 50mm x 35mm
! Clearance Area: 35mm x 12mm
! Feeding line: straight line; 9mm x 1mm
! Applications: Smartphone, Fleet management, IoT
! Frequency range 0.65GHz to 6GHz, step ~5MHz
! Number of ports 5
!
! This product and its use are protected by at least one or more of the following patents and
! patent applications PAT. US 2020/0176855 A1; WO 2019/008171 A1; and other domestic and international
! patents pending. Additional information about patents related to this product is available at 
! https://ignion.io/files/Patent-list-NN.pdf, all rights reserved. Copyright, Ignion 2021.
!
! Need more help? Your platform is much different than these examples in the manual? Use our 
! Fast Track service (https://ignion.io/fast-track/), for free, and get a personalized antenna design in
! just 24 hours.
!
!
! Touchstone port 1 = CST MWS port 1 ("Series Feeding Port 1")
! Touchstone port 2 = CST MWS port 2 ("Series in-Trio Port 1")
! Touchstone port 3 = CST MWS port 3 ("Series in-Trio Port 2")
! Touchstone port 4 = CST MWS port 4 ("Series Port in Feeding line of Port 2")
! Touchstone port 5 = CST MWS port 5 ("Series Feeding Port 2")
!
! CST MICROWAVE STUDIO 2019
# GHz S MA R 50
! Nport = 5
0.65                     0.65834         1.39881         0.355229         155.407         0.377603        -42.6639         0.381994        -42.0371
                         0.38264        -42.5664
                        0.355245         155.406         0.670007        -1.75446         0.369381        -43.6684         0.375198        -43.3802
                        0.376795        -44.1109
                         0.37762        -42.6642         0.369382        -43.6684         0.702641        0.387237         0.329489         151.142
                        0.337683         147.559
                        0.382002        -42.0373         0.375189          -43.38         0.329482         151.142          0.70338         5.42207
                        0.326236         155.337
                        0.382356        -42.5276         0.376518        -44.0759         0.338004         147.489         0.326699           155.2
                        0.697854         2.72456
0.65535                 0.659053          1.3579         0.354587         155.252         0.377369        -42.9922         0.381842        -42.3617
                        0.382488        -42.8969
                        0.354603         155.252         0.670863        -1.82277         0.369003        -44.0042         0.374923        -43.7144
                        0.376533        -44.4526
                        0.377387        -42.9925         0.369003        -44.0042           0.7039          0.3146         0.328429         150.958
                        0.336761          147.34
                        0.381851        -42.3618         0.374914        -43.7143         0.328421         150.958         0.704651         5.38624
                        0.325154           155.2
                         0.38222        -42.8565         0.376271         -44.416         0.337057         147.269         0.325571         155.061
                         0.69903         2.67063
0.6607                   0.65976          1.3159         0.353945           155.1         0.377137        -43.3205         0.381693        -42.6863
                        0.382338        -43.2274
                        0.353961           155.1         0.671718        -1.89198         0.368625        -44.3398         0.374649        -44.0486
                        0.376272        -44.7941
                        0.377154        -43.3207         0.368625        -44.3398         0.705158        0.240728         0.327363         150.776
                        0.335834         147.123
                        0.381701        -42.6864          0.37464        -44.0485         0.327355         150.776         0.705917         5.34897
                        0.324067         155.066
                        0.382086        -43.1855         0.376023        -44.7561         0.336106         147.049         0.324439         154.923
                        0.700202          2.6154
0.66605                 0.660463         1.27283         0.353303         154.949         0.376905        -43.6487         0.381545         -43.011
                         0.38219         -43.558
                        0.353319         154.948         0.672569        -1.96209         0.368246        -44.6753         0.374374        -44.3828
                         0.37601        -45.1356
                        0.376922         -43.649         0.368246        -44.6753         0.706412        0.165635         0.326294         150.595
                        0.334904         146.907
                        0.381554        -43.0111         0.374366        -44.3826         0.326286         150.596          0.70718         5.31029
                        0.322976         154.933
                        0.381954        -43.5147         0.375777        -45.0962         0.335152         146.832         0.323303         154.789
                        0.701372         2.55889
0.6714                   0.66116          1.2287          0.35266         154.799         0.376674        -43.9769         0.381399        -43.3359
                        0.382043        -43.8887
                        0.352676         154.799         0.673418        -2.03309         0.367866        -45.0107         0.374101        -44.7169
                        0.375749        -45.4769
                        0.376691        -43.9772         0.367866        -45.0107         0.707664       0.0893372          0.32522         150.417
                         0.33397         146.693
                        0.381407         -43.336         0.374092        -44.7168         0.325213         150.417         0.708438         5.27022
                        0.321882         154.803
                        0.381824        -43.8441         0.375531        -45.4363         0.334193         146.616         0.322163         154.657
                        0.702538         2.50111
0.67675                 0.661852         1.18354         0.352017         154.651         0.376444        -44.3051         0.381254        -43.6609
                        0.381897        -44.2195
                        0.352033         154.651         0.674264        -2.10496         0.367486        -45.3459         0.373827        -45.0511
                        0.375489        -45.8182
                        0.376461        -44.3054         0.367486        -45.3459         0.708913       0.0118494         0.324143          150.24
                        0.333033          146.48
                        0.381262         -43.661         0.373818        -45.0509         0.324135          150.24          0.70969         5.22877
                        0.320784         154.675
                        0.381695        -44.1738         0.375285        -45.7765          0.33323         146.402          0.32102         154.527
                          0.7037         2.44207
0.6821                  0.662538         1.13737         0.351375         154.504         0.376214        -44.6333          0.38111         -43.986
                        0.381753        -44.5503
                        0.351391         154.504         0.675107        -2.17769         0.367105         -45.681         0.373553        -45.3852
                        0.375228        -46.1594
                        0.376231        -44.6336         0.367105         -45.681         0.710159      -0.0668124         0.323062         150.066
                        0.332092         146.269
                        0.381119        -43.9861         0.373544         -45.385         0.323055         150.066         0.710938         5.18597
                        0.319683         154.549
                        0.381568        -44.5036         0.375039        -46.1167         0.332265          146.19         0.319873           154.4
                        0.704858         2.38179
0.68745                 0.663218         1.09019         0.350732         154.359         0.375984        -44.9615         0.380968        -44.3112
                         0.38161        -44.8812
                        0.350748         154.358         0.675947        -2.25126         0.366723        -46.0159          0.37328        -45.7193
                        0.374968        -46.5005
                        0.376001        -44.9618         0.366723        -46.0159         0.711401       -0.146632         0.321978         149.893
                        0.331148         146.059
                        0.380976        -44.3114         0.373271        -45.7191         0.321971         149.893          0.71218         5.14184
                        0.318578         154.425
                        0.381442        -44.8337         0.374794         -46.457         0.331296         145.979         0.318724         154.276
                        0.706012         2.32028
0.6928                  0.663892         1.04204          0.35009         154.215         0.375755        -45.2897         0.380827        -44.6366
                        0.381468        -45.2122
                        0.350106         154.215         0.676784        -2.32567         0.366341        -46.3507         0.373006        -46.0534
                        0.374707        -46.8415
                        0.375772        -45.2899         0.366341        -46.3507          0.71264       -0.227594         0.320891         149.722
                        0.330201         145.851
                        0.380835        -44.6367         0.372997        -46.0532         0.320884         149.722         0.713416          5.0964
                         0.31747         154.304
                        0.381318        -45.1639         0.374549        -46.7972         0.330324          145.77         0.317572         154.154
                        0.707162         2.25756
0.69815                 0.664559        0.992936         0.349449         154.073         0.375527        -45.6179         0.380686        -44.9621
                        0.381328        -45.5433
                        0.349465         154.072         0.677617         -2.4009         0.365958        -46.6853         0.372732        -46.3874
                        0.374447        -47.1824
                        0.375544        -45.6181         0.365958        -46.6853         0.713875       -0.309682         0.319801         149.553
                        0.329251         145.644
                        0.380695        -44.9623         0.372724        -46.3873         0.319793         149.553         0.714646         5.04968
                         0.31636         154.184
                        0.381194        -45.4944         0.374304        -47.1376         0.329349         145.563         0.316418         154.035
                        0.708307         2.19364
0.7035                   0.66522        0.942893         0.348809         153.932         0.375298         -45.946         0.380547        -45.2878
                        0.381188        -45.8745
                        0.348824         153.931         0.678446        -2.47693         0.365574        -47.0199         0.372459        -46.7215
                        0.374187        -47.5233
                        0.375315        -45.9463         0.365574        -47.0199         0.715106       -0.392879         0.318708         149.386
                        0.328298         145.439
                        0.380555         -45.288          0.37245        -46.7214         0.318701         149.386          0.71587         5.00169
                        0.315247         154.067
                        0.381072        -45.8251          0.37406        -47.4779         0.328371         145.357         0.315262         153.919
                        0.709447         2.12853
0.70885                 0.665874        0.891936         0.348169         153.792          0.37507        -46.2742         0.380408        -45.6136
                         0.38105        -46.2058
                        0.348185         153.792         0.679272        -2.55376         0.365189        -47.3543         0.372185        -47.0556
                        0.373927        -47.8641
                        0.375087        -46.2745          0.36519        -47.3543         0.716333       -0.477168         0.317613         149.221
                        0.327342         145.236
                        0.380417        -45.6138         0.372176        -47.0554         0.317605         149.221         0.717087         4.95246
                        0.314131         153.952
                         0.38095        -46.1561         0.373815        -47.8183         0.327391         145.154         0.314104         153.805
                        0.710582         2.06224
0.7142                   0.66652        0.840085         0.347531         153.654         0.374842        -46.6024          0.38027        -45.9396
                        0.380912        -46.5373
                        0.347547         153.654         0.680094        -2.63137         0.364804        -47.6885          0.37191        -47.3896
                        0.373666        -48.2048
                        0.374859        -46.6027         0.364804        -47.6885         0.717555       -0.562534         0.316515         149.058
                        0.326383         145.034
                        0.380279        -45.9397         0.371901        -47.3895         0.316507         149.058         0.718297         4.90201
                        0.313013          153.84
                         0.38083        -46.4873          0.37357        -48.1587         0.326409         144.952         0.312945         153.694
                        0.711711          1.9948
0.71955                  0.66716        0.787361         0.346894         153.517         0.374614        -46.9306         0.380133        -46.2657
                        0.380776        -46.8688
                         0.34691         153.517         0.680912        -2.70974         0.364418        -48.0226         0.371636        -47.7237
                        0.373406        -48.5454
                        0.374631        -46.9309         0.364418        -48.0226         0.718773        -0.64896         0.315415         148.897
                        0.325423         144.833
                        0.380142        -46.2659         0.371627        -47.7235         0.315407         148.897           0.7195         4.85037
                        0.311893          153.73
                         0.38071        -46.8187         0.373325        -48.4992         0.325425         144.752         0.311785         153.585
                        0.712835         1.92622
0.7249                  0.667792        0.733786         0.346259         153.382         0.374387        -47.2588         0.379997         -46.592
                         0.38064        -47.2004
                        0.346275         153.382         0.681726        -2.78886          0.36403        -48.3566         0.371361        -48.0577
                        0.373146        -48.8859
                        0.374404         -47.259          0.36403        -48.3566         0.719987       -0.736428         0.314313         148.738
                         0.32446         144.634
                        0.380005        -46.5921         0.371352        -48.0575         0.314305         148.738         0.720696         4.79756
                        0.310772         153.622
                        0.380591        -47.1503         0.373079        -48.8397         0.324439         144.554         0.310624          153.48
                        0.713954         1.85652
0.73025                 0.668416        0.679382         0.345625         153.248         0.374159        -47.5869         0.379861        -46.9184
                        0.380505        -47.5321
                        0.345641         153.248         0.682536        -2.86871         0.363642        -48.6905         0.371085        -48.3917
                        0.372885        -49.2264
                        0.374176        -47.5872         0.363642        -48.6905         0.721195       -0.824922         0.313209         148.581
                        0.323495         144.437
                        0.379869        -46.9185         0.371076        -48.3915         0.313202         148.581         0.721885         4.74359
                        0.309648         153.517
                        0.380472        -47.4822         0.372834        -49.1802         0.323451         144.358         0.309463         153.377
                        0.715066          1.7857
0.7356                  0.669032         0.62417         0.344993         153.116         0.373931        -47.9151         0.379725        -47.2449
                        0.380371         -47.864
                        0.345009         153.116         0.683341        -2.94929         0.363253        -49.0242         0.370809        -48.7257
                        0.372624        -49.5668
                        0.373948        -47.9154         0.363253        -49.0242         0.722399       -0.914426         0.312104         148.425
                        0.322527         144.242
                        0.379734        -47.2451         0.370801        -48.7255         0.312096         148.426         0.723065         4.68851
                        0.308523         153.414
                        0.380354        -47.8142         0.372588        -49.5208         0.322462         144.163         0.308301         153.277
                        0.716172         1.71378
0.74095                 0.669641        0.568172         0.344363         152.985         0.373704        -48.2433          0.37959        -47.5716
                        0.380237        -48.1959
                        0.344379         152.985         0.684142        -3.03058         0.362863        -49.3577         0.370533        -49.0597
                        0.372363        -49.9071
                         0.37372        -48.2436         0.362863        -49.3578         0.723598        -1.00492         0.310997         148.272
                        0.321558         144.048
                        0.379599        -47.5717         0.370524        -49.0595          0.31099         148.273         0.724238         4.63232
                        0.307397         153.313
                        0.380237        -48.1465         0.372341        -49.8614         0.321471          143.97         0.307139         153.179
                        0.717273         1.64078
0.7463                  0.670241        0.511409         0.343735         152.855         0.373476        -48.5714         0.379455        -47.8984
                        0.380104         -48.528
                        0.343751         152.855         0.684939        -3.11257         0.362471        -49.6912         0.370256        -49.3936
                        0.372102        -50.2474
                        0.373492        -48.5717         0.362471        -49.6912         0.724791         -1.0964         0.309889         148.121
                        0.320587         143.856
                        0.379464        -47.8986         0.370247        -49.3935         0.309882         148.122         0.725403         4.57505
                         0.30627         153.215
                        0.380119        -48.4791         0.372094         -50.202          0.32048          143.78         0.305978         153.085
                        0.718366         1.56672
0.75165                 0.670833        0.453904         0.343109         152.727         0.373247        -48.8996         0.379321        -48.2254
                        0.379971        -48.8601
                        0.343125         152.727         0.685731        -3.19523         0.362079        -50.0245         0.369978        -49.7276
                        0.371841        -50.5876
                        0.373264        -48.8999         0.362079        -50.0245         0.725979        -1.18883          0.30878         147.972
                        0.319615         143.665
                        0.379329        -48.2255         0.369969        -49.7274         0.308773         147.973         0.726559         4.51672
                        0.305141         153.119
                        0.380002        -48.8118         0.371847        -50.5426         0.319487         143.591         0.304817         152.993
                        0.719453         1.49161
0.757                   0.671416        0.395678         0.342486           152.6         0.373019        -49.2277         0.379186        -48.5525
                        0.379839        -49.1924
                        0.342502           152.6         0.686518        -3.27857         0.361686        -50.3576           0.3697        -50.0615
                        0.371579        -50.9277
                        0.373036         -49.228         0.361686        -50.3576         0.727161         -1.2822          0.30767         147.826
                        0.318641         143.476
                        0.379195        -48.5526         0.369691        -50.0613         0.307663         147.826         0.727707         4.45736
                        0.304012         153.026
                        0.379885        -49.1447         0.371598        -50.8833         0.318493         143.403         0.303657         152.904
                        0.720533         1.41546
0.76235                 0.671992        0.336753         0.341865         152.475          0.37279        -49.5559         0.379052        -48.8797
                        0.379708        -49.5248
                        0.341881         152.475         0.687301        -3.36256         0.361291        -50.6906         0.369421        -50.3953
                        0.371317        -51.2677
                        0.372807        -49.5562         0.361291        -50.6906         0.728338        -1.37651         0.306559         147.681
                        0.317666         143.289
                         0.37906        -48.8798         0.369412        -50.3952         0.306552         147.681         0.728847         4.39699
                        0.302883         152.936
                        0.379768        -49.4779          0.37135        -51.2239         0.317499         143.218         0.302498         152.817
                        0.721606          1.3383
0.7677                  0.672558        0.277149         0.341247         152.351         0.372561         -49.884         0.378918         -49.207
                        0.379577        -49.8572
                        0.341262          152.35         0.688079        -3.44718         0.360895        -51.0234         0.369141        -50.7292
                        0.371054        -51.6076
                        0.372578        -49.8843         0.360895        -51.0234         0.729509        -1.47172         0.305448         147.538
                        0.316689         143.104
                        0.378926        -49.2072         0.369132         -50.729         0.305441         147.538         0.729978         4.33563
                        0.301753         152.847
                        0.379651        -49.8112           0.3711        -51.5646         0.316505         143.035          0.30134         152.734
                        0.722672         1.26013
0.77305                 0.673116        0.216889         0.340631         152.228         0.372332         -50.212         0.378783        -49.5345
                        0.379446        -50.1898
                        0.340647         152.228         0.688852        -3.53244         0.360498        -51.3561          0.36886         -51.063
                        0.370791        -51.9474
                        0.372349        -50.2123         0.360499        -51.3561         0.730674        -1.56783         0.304336         147.397
                        0.315711          142.92
                        0.378792        -49.5346         0.368851        -51.0628         0.304329         147.397           0.7311         4.27331
                        0.300623         152.762
                        0.379534        -50.1447          0.37085        -51.9053          0.31551         142.853         0.300183         152.653
                         0.72373         1.18098
0.7784                  0.673665        0.155993         0.340019         152.106         0.372102        -50.5401         0.378649         -49.862
                        0.379316        -50.5225
                        0.340034         152.106          0.68962        -3.61831           0.3601        -51.6887         0.368578        -51.3967
                        0.370528        -52.2872
                        0.372119        -50.5404           0.3601        -51.6887         0.731834        -1.66481         0.303224         147.259
                        0.314733         142.738
                        0.378657        -49.8622          0.36857        -51.3966         0.303217         147.259         0.732213         4.21005
                        0.299493         152.679
                        0.379417        -50.4785         0.370599        -52.2459         0.314515         142.673         0.299028         152.575
                        0.724782         1.10086
0.78375                 0.674205       0.0944819         0.339409         151.986         0.371872        -50.8681         0.378515        -50.1897
                        0.379185        -50.8553
                        0.339424         151.986         0.690384        -3.70478         0.359701         -52.021         0.368296        -51.7304
                        0.370265        -52.6269
                        0.371889        -50.8684         0.359701         -52.021         0.732987        -1.76266         0.302112         147.122
                        0.313753         142.558
                        0.378523        -50.1898         0.368287        -51.7303         0.302105         147.122         0.733317         4.14586
                        0.298363         152.598
                          0.3793        -50.8124         0.370347        -52.5866         0.313519         142.495         0.297875           152.5
                        0.725825         1.01978
0.7891                  0.674737       0.0323764         0.338802         151.867         0.371641        -51.1961          0.37838        -50.5175
                        0.379056        -51.1881
                        0.338818         151.867         0.691142        -3.79184         0.359301        -52.3532         0.368013        -52.0641
                        0.370001        -52.9664
                        0.371658        -51.1964         0.359301        -52.3532         0.734134        -1.86135            0.301         146.987
                        0.312773         142.379
                        0.378388        -50.5176         0.368004        -52.0639         0.300993         146.988         0.734412         4.08077
                        0.297233         152.521
                        0.379183        -51.1464         0.370094        -52.9272         0.312524         142.319         0.296725         152.428
                        0.726861        0.937761
0.79445                 0.675259      -0.0303033         0.338199          151.75          0.37141         -51.524         0.378245        -50.8453
                        0.378926        -51.5211
                        0.338214          151.75         0.691895        -3.87948         0.358899        -52.6853         0.367728        -52.3976
                        0.369736        -53.3059
                        0.371427        -51.5243         0.358899        -52.6853         0.735275        -1.96088         0.299888         146.855
                        0.311792         142.202
                        0.378253        -50.8455          0.36772        -52.3975         0.299881         146.855         0.735497         4.01481
                        0.296104         152.446
                        0.379065        -51.4807         0.369841        -53.2678          0.31153         142.145         0.295576         152.359
                        0.727889        0.854818
0.7998                  0.675772      -0.0935372         0.337598         151.634         0.371178        -51.8519          0.37811        -51.1733
                        0.378797        -51.8541
                        0.337614         151.633         0.692643        -3.96768         0.358496        -53.0171         0.367443        -52.7311
                        0.369471        -53.6453
                        0.371195        -51.8522         0.358496        -53.0171          0.73641        -2.06122         0.298776         146.725
                         0.31081         142.027