! IGNION VIRTUAL ANTENNA LIBRARY
!
! NN_TRIO_B110x50_C50x12
! Virtual Antenna™ TRIO mXTEND™: NN03-310 30.0mm x 3.0mm x 1.0mm
! https://ignion.io/product/trio-mxtend/
! Board: 110mm x 50mm
! Clearance Area: 50mm x 12mm
! Feeding line: straight line; 9mm x 1mm
! Applications: Smartphone, Fleet management, IoT
! Frequency range 0.65GHz to 6GHz, step ~5MHz
! Number of ports 5
!
! This product and its use are protected by at least one or more of the following patents and
! patent applications PAT. US 2020/0176855 A1; WO 2019/008171 A1; and other domestic and international
! patents pending. Additional information about patents related to this product is available at 
! https://ignion.io/files/Patent-list-NN.pdf, all rights reserved. Copyright, Ignion 2021.
!
! Need more help? Your platform is much different than these examples in the manual? Use our 
! Fast Track service (https://ignion.io/fast-track/), for free, and get a personalized antenna design in
! just 24 hours.
!
!
! Touchstone port 1 = CST MWS port 1 ("Series Feeding Port 1")
! Touchstone port 2 = CST MWS port 2 ("Series in-Trio Port 1")
! Touchstone port 3 = CST MWS port 3 ("Series in-Trio Port 2")
! Touchstone port 4 = CST MWS port 4 ("Series Port in Feeding line of Port 2")
! Touchstone port 5 = CST MWS port 5 ("Series Feeding Port 2")
!
! CST MICROWAVE STUDIO 2019
# GHz S MA R 50
! Nport = 5
0.65                    0.644597       -0.406167         0.363647         156.938         0.383404        -43.7268         0.389652         -43.398
                        0.390702        -44.3527
                        0.362485          156.82         0.659871         -3.1686         0.372625        -44.6335         0.378938        -44.5363
                        0.380398        -45.5403
                        0.384242        -43.5282         0.372625        -44.6335         0.699078        -1.03564         0.327807         151.835
                        0.335054         148.209
                        0.389978        -43.3416         0.378874        -44.5496         0.327992         151.872         0.700409         4.05976
                        0.322817         157.064
                        0.390998        -44.3018         0.380344        -45.5524         0.335063         148.214         0.322817         157.064
                          0.6953         0.89854
0.65535                   0.6447       -0.479932          0.36335         156.807          0.38316        -44.0997         0.389546        -43.7908
                        0.390615        -44.7606
                        0.362156         156.703         0.660486        -3.24019         0.372208        -44.9995         0.378618        -44.9128
                        0.380101        -45.9302
                        0.384066        -43.9105         0.372208        -44.9995         0.700219        -1.12101         0.326773         151.691
                        0.334112         148.032
                        0.389892        -43.7379         0.378549        -44.9255         0.326969         151.725         0.701445         3.99907
                        0.321755         157.003
                        0.390929        -44.7128         0.380043        -45.9418         0.334122         148.037         0.321755         157.003
                        0.696241         0.80752
0.6607                   0.64477       -0.552981         0.363065         156.677         0.382906         -44.473         0.389425        -44.1849
                        0.390511          -45.17
                        0.361844         156.586         0.661096        -3.31194         0.371784        -45.3655         0.378288        -45.2895
                        0.379794        -46.3205
                        0.383875        -44.2937         0.371784        -45.3655         0.701354        -1.20733         0.325745         151.548
                        0.333177         147.857
                        0.389788        -44.1355         0.378215        -45.3016         0.325951          151.58         0.702463         3.93757
                        0.320708         156.944
                         0.39084        -45.1253         0.379732        -46.3316         0.333189         147.862         0.320708         156.944
                        0.697157         0.71573
0.66605                 0.644807       -0.625154          0.36279         156.546         0.382643        -44.8466         0.389288          -44.58
                        0.390389        -45.5807
                        0.361548         156.469           0.6617        -3.38385         0.371354        -45.7314         0.377949        -45.6665
                        0.379476        -46.7112
                        0.383671        -44.6776         0.371354        -45.7314         0.702484        -1.29457         0.324724         151.408
                        0.332249         147.685
                        0.389666        -44.5343         0.377871        -45.6779         0.324938         151.437         0.703461         3.87536
                        0.319676         156.889
                        0.390733        -45.5393          0.37941        -46.7217         0.332262         147.689         0.319676         156.889
                        0.698048        0.623274
0.6714                  0.644811       -0.696296         0.362525         156.415         0.382371        -45.2205         0.389135        -44.9762
                         0.39025        -45.9926
                        0.361268         156.352           0.6623        -3.45587         0.370917        -46.0972         0.377599        -46.0436
                        0.379146        -47.1022
                        0.383453        -45.0622         0.370917        -46.0972         0.703608        -1.38269         0.323709          151.27
                        0.331329         147.515
                        0.389527        -44.9341         0.377518        -46.0543          0.32393         151.296         0.704441          3.8125
                         0.31866         156.837
                        0.390606        -45.9546         0.379077        -47.1121         0.331344         147.519          0.31866         156.837
                        0.698916        0.530251
0.67675                 0.644784       -0.766256         0.362271         156.285          0.38209        -45.5946         0.388965        -45.3732
                        0.390092        -46.4056
                        0.361004         156.235         0.662894        -3.52797         0.370473        -46.4629          0.37724        -46.4208
                        0.378804        -47.4934
                        0.383221        -45.4473         0.370473        -46.4629         0.704725        -1.47168         0.322701         151.134
                        0.330418         147.346
                        0.389369         -45.335         0.377155        -46.4308         0.322928         151.158         0.705403         3.74907
                        0.317661         156.787
                        0.390459         -46.371         0.378732        -47.5028         0.330433          147.35         0.317661         156.787
                        0.699758        0.436759
0.6821                  0.644726       -0.834886         0.362027         156.154         0.381799        -45.9689         0.388778        -45.7711
                        0.389915        -46.8197
                        0.360756         156.117         0.663484        -3.60013         0.370022        -46.8284          0.37687        -46.7981
                        0.378451        -47.8848
                        0.382974        -45.8329         0.370022        -46.8284         0.705837         -1.5615         0.321699             151
                        0.329514          147.18
                        0.389193        -45.7367         0.376782        -46.8074         0.321932         151.021         0.706346         3.68515
                        0.316677          156.74
                        0.390291        -46.7885         0.378376        -47.8935         0.329531         147.184         0.316677          156.74
                        0.700577        0.342897
0.68745                 0.644638       -0.902046         0.361794         156.023         0.381498        -46.3433         0.388574        -46.1696
                        0.389718        -47.2346
                        0.360524         155.999         0.664069        -3.67232         0.369564        -47.1936          0.37649        -47.1753
                        0.378086        -48.2763
                        0.382712        -46.2189         0.369564        -47.1936         0.706942        -1.65214         0.320705         150.868
                        0.328619         147.016
                        0.388998        -46.1391           0.3764        -47.1839         0.320942         150.886          0.70727         3.62081
                        0.315711         156.696
                        0.390103         -47.207         0.378008        -48.2844         0.328637         147.019         0.315711         156.696
                        0.701372        0.248758
0.6928                  0.644521       -0.967596          0.36157         155.891         0.381187        -46.7178         0.388352        -46.5687
                        0.389503        -47.6503
                        0.360307         155.881         0.664651        -3.74452         0.369099        -47.5587           0.3761        -47.5525
                        0.377709        -48.6677
                        0.382436        -46.6052         0.369099        -47.5587         0.708041        -1.74357         0.319719         150.738
                        0.327734         146.854
                        0.388784        -46.5422         0.376007        -47.5603         0.319958         150.753         0.708177         3.55612
                        0.314761         156.654
                        0.389894        -47.6262         0.377629        -48.6752         0.327751         146.856         0.314761         156.654
                        0.702143        0.154435
0.69815                 0.644377        -1.03141         0.361356         155.759         0.380867        -47.0923         0.388113        -46.9683
                        0.389267        -48.0666
                        0.360105         155.762         0.665228         -3.8167         0.368627        -47.9235         0.375699        -47.9296
                         0.37732        -49.0592
                        0.382144        -46.9916         0.368627        -47.9235         0.709134        -1.83575         0.318739          150.61
                        0.326857         146.693
                         0.38855        -46.9457         0.375604        -47.9365         0.318981         150.622         0.709066         3.49114
                        0.313829         156.614
                        0.389664        -48.0461         0.377237         -49.066         0.326875         146.695         0.313829         156.614
                         0.70289       0.0600184
0.7035                  0.644207        -1.09335         0.361151         155.626         0.380536        -47.4667         0.387856        -47.3682
                        0.389011        -48.4835
                        0.359917         155.642         0.665801        -3.88884         0.368148        -48.2879         0.375288        -48.3064
                        0.376918        -49.4505
                        0.381838        -47.3781         0.368148        -48.2879         0.710221        -1.92868         0.317767         150.483
                        0.325989         146.534
                        0.388297        -47.3496         0.375192        -48.3126          0.31801         150.492         0.709937         3.42595
                        0.312913         156.577
                        0.389412        -48.4666         0.376834        -49.4566         0.326008         146.536         0.312913         156.577
                        0.703615      -0.0344046
0.70885                 0.644011         -1.1533         0.360956         155.492         0.380195        -47.8411         0.387581        -47.7684
                        0.388736        -48.9008
                        0.359743         155.521         0.666371        -3.96092         0.367662         -48.652         0.374867         -48.683
                        0.376504        -49.8416
                        0.381517        -47.7646         0.367662         -48.652         0.711301        -2.02232         0.316803         150.358
                         0.32513         146.376
                        0.388024        -47.7537         0.374769        -48.6884         0.317046         150.364         0.710791          3.3606
                        0.312016         156.541
                        0.389138        -48.8874         0.376419         -49.847         0.325149         146.378         0.312016         156.541
                        0.704317       -0.128749
0.7142                  0.643792        -1.21115         0.360769         155.358         0.379844        -48.2152         0.387287        -48.1687
                         0.38844        -49.3184
                        0.359584         155.399         0.666938        -4.03291         0.367168        -49.0157         0.374435        -49.0593
                        0.376079        -50.2325
                         0.38118         -48.151         0.367168        -49.0157         0.712376        -2.11665         0.315846         150.234
                        0.324281          146.22
                        0.387732         -48.158         0.374335        -49.0638         0.316088         150.237         0.711629         3.29516
                        0.311135         156.506
                        0.388843        -49.3085         0.375992        -50.2372           0.3243         146.222         0.311135         156.506
                        0.704997       -0.222933
0.71955                 0.643551         -1.2668         0.360592         155.223         0.379483        -48.5892         0.386976        -48.5691
                        0.388123        -49.7361
                        0.359437         155.276         0.667502        -4.10481         0.366668         -49.379         0.373992        -49.4352
                         0.37564         -50.623
                        0.380829        -48.5372         0.366668         -49.379         0.713444        -2.21165         0.314898         150.112
                        0.323441         146.065
                         0.38742        -48.5622         0.373892        -49.4389         0.315137         150.112         0.712449         3.22968
                        0.310272         156.474
                        0.388526        -49.7298         0.375552         -50.627         0.323461         146.066         0.310272         156.474
                        0.705655       -0.316876
0.7249                  0.643288        -1.32013         0.360422         155.087         0.379112        -48.9629         0.386646        -48.9693
                        0.387786        -50.1539
                        0.359302         155.151         0.668064        -4.17659         0.366161        -49.7418         0.373539        -49.8106
                         0.37519        -51.0131
                        0.380463         -48.923         0.366161        -49.7419         0.714506         -2.3073         0.313956         149.991
                        0.322611         145.912
                        0.387088        -48.9663         0.373439        -49.8135         0.314193         149.989         0.713254         3.16423
                        0.309426         156.442
                        0.388187         -50.151         0.375101        -51.0164          0.32263         145.913         0.309426         156.442
                        0.706293       -0.410505
0.73025                 0.643006        -1.37105         0.360261          154.95         0.378731        -49.3362         0.386299        -49.3693
                        0.387428        -50.5716
                         0.35918         155.025         0.668624        -4.24824         0.365647        -50.1042         0.373076        -50.1856
                        0.374728        -51.4026
                        0.380081        -49.3084         0.365647        -50.1042         0.715562        -2.40357         0.313023         149.872
                         0.32179          145.76
                        0.386736        -49.3701         0.372975        -50.1877         0.313256         149.866         0.714044         3.09885
                        0.308597         156.412
                        0.387826        -50.5721         0.374638        -51.4052         0.321809          145.76         0.308597         156.412
                         0.70691       -0.503744
0.7356                  0.642707        -1.41948         0.360107         154.813          0.37834        -49.7092         0.385933        -49.7691
                         0.38705        -50.9891
                        0.359069         154.897         0.669181        -4.31974         0.365126         -50.466         0.372602        -50.5599
                        0.374253        -51.7916
                        0.379686        -49.6933         0.365126         -50.466         0.716612        -2.50045         0.312097         149.753
                        0.320978         145.609
                        0.386365        -49.7736         0.372502        -50.5612         0.312325         149.745         0.714819         3.03359
                        0.307785         156.383
                        0.387443         -50.993         0.374164        -51.7936         0.320997         145.609         0.307785         156.383
                        0.707508       -0.596527
0.74095                 0.642391        -1.46534         0.359961         154.674         0.377939        -50.0817         0.385548        -50.1684
                        0.386651        -51.4062
                        0.358969         154.768         0.669737        -4.39109         0.364598        -50.8272         0.372119        -50.9337
                        0.373766          -52.18
                        0.379275        -50.0777         0.364598        -50.8272         0.717655        -2.59792         0.311179         149.636
                        0.320176         145.458
                        0.385975        -50.1765         0.372019        -50.9342         0.311401         149.625         0.715579          2.9685
                        0.306989         156.354
                        0.387038        -51.4134         0.373677        -52.1812         0.320195         145.458         0.306989         156.354
                        0.708086       -0.688786
0.7463                   0.64206        -1.50855         0.359821         154.533         0.377527        -50.4536         0.385146        -50.5671
                        0.386231        -51.8229
                        0.358879         154.637         0.670292        -4.46228         0.364063        -51.1878         0.371625        -51.3067
                        0.373268        -52.5677
                        0.378851        -50.4612         0.364063        -51.1878         0.718693        -2.69595         0.310268          149.52
                        0.319383         145.309
                        0.385565        -50.5788         0.371526        -51.3064         0.310483         149.506         0.716325         2.90364
                         0.30621         156.326
                        0.386611        -51.8333         0.373179        -52.5682         0.319401         145.309          0.30621         156.326
                        0.708646       -0.780459
0.75165                 0.641717        -1.54905         0.359688         154.392         0.377106        -50.8251         0.384726        -50.9652
                        0.385791         -52.239
                        0.358798         154.504         0.670847        -4.53329         0.363522        -51.5477         0.371121         -51.679
                        0.372757        -52.9545
                        0.378412        -50.8441         0.363522        -51.5477         0.719725        -2.79453         0.309364         149.405
                        0.318599         145.161
                        0.385135        -50.9804         0.371023        -51.6779         0.309573         149.389         0.717059         2.83903
                        0.305447         156.299
                        0.386163        -52.2525         0.372669        -52.9543         0.318617          145.16         0.305447         156.299
                        0.709189       -0.871489
0.757                   0.641363        -1.58679         0.359561         154.249         0.376675        -51.1958         0.384289        -51.3626
                        0.385331        -52.6544
                        0.358726         154.369         0.671401        -4.60411         0.362975         -51.907         0.370607        -52.0504
                        0.372235        -53.3405
                        0.377959         -51.226         0.362975         -51.907         0.720751        -2.89365         0.308467          149.29
                        0.317824         145.013
                        0.384687        -51.3811          0.37051        -52.0486         0.308668         149.272         0.717779         2.77471
                        0.304699         156.272
                        0.385694        -52.6709         0.372148        -53.3397         0.317841         145.012         0.304699         156.272
                        0.709715        -0.96182
0.76235                 0.640999        -1.62171         0.359439         154.105         0.376234        -51.5659         0.383833        -51.7591
                        0.384851        -53.0689
                        0.358662         154.232         0.671955        -4.67476          0.36242        -52.2656         0.370083         -52.421
                        0.371702        -53.7255
                        0.377492        -51.6069         0.362421        -52.2656         0.721772        -2.99327         0.307578         149.177
                        0.317058         144.866
                         0.38422        -51.7808         0.369988        -52.4184          0.30777         149.156         0.718487         2.71073
                        0.303967         156.245
                        0.385203        -53.0883         0.371616         -53.724         0.317074         144.864         0.303967         156.245
                        0.710225         -1.0514
0.7677                  0.640627        -1.65377         0.359322         153.959         0.375784        -51.9353         0.383361        -52.1545
                        0.384351        -53.4825
                        0.358605         154.093         0.672509        -4.74522          0.36186        -52.6233          0.36955        -52.7906
                        0.371157        -54.1095
                        0.377013        -51.9868          0.36186        -52.6233         0.722787         -3.0934         0.306695         149.064
                        0.316301         144.719
                        0.383735        -52.1793         0.369457        -52.7873         0.306878         149.041         0.719184         2.64711
                        0.303249         156.219
                        0.384692        -53.5047         0.371072        -54.1074         0.316316         144.717         0.303249         156.219
                         0.71072        -1.14019
0.77305                  0.64025        -1.68294          0.35921         153.812         0.375324        -52.3038         0.382872        -52.5489
                        0.383832         -53.895
                        0.358555         153.952         0.673064        -4.81548         0.361293        -52.9803         0.369008        -53.1593
                        0.370601        -54.4925
                         0.37652        -52.3655         0.361293        -52.9803         0.723796        -3.19401         0.305819         148.951
                        0.315552         144.573
                        0.383232        -52.5767         0.368917        -53.1553         0.305992         148.927         0.719871         2.58389
                        0.302546         156.192
                         0.38416        -53.9199         0.370518        -54.4897         0.315566         144.571         0.302546         156.192
                        0.711201        -1.22813
0.7784                  0.639869         -1.7092         0.359102         153.664         0.374855        -52.6715         0.382365        -52.9421
                        0.383293        -54.3064
                         0.35851         153.809          0.67362        -4.88556         0.360721        -53.3365         0.368456        -53.5268
                        0.370035        -54.8742
                        0.376014         -52.743         0.360721        -53.3365           0.7248        -3.29509         0.304949          148.84
                        0.314811         144.427
                        0.382711        -52.9727         0.368367        -53.5222         0.305111         148.813         0.720547         2.52109
                        0.301856         156.165
                        0.383608        -54.3338         0.369953        -54.8709         0.314824         144.425         0.301856         156.165
                        0.711669         -1.3152
0.78375                 0.639485        -1.73254         0.358997         153.514         0.374377        -53.0383         0.381843         -53.334
                        0.382736        -54.7164
                        0.358469         153.663         0.674177        -4.95546         0.360142        -53.6918         0.367896        -53.8932
                        0.369458        -55.2548
                        0.375496        -53.1191         0.360142        -53.6918         0.725799        -3.39662         0.304085         148.729
                        0.314078         144.282
                        0.382173        -53.3673         0.367809        -53.8879         0.304237           148.7         0.721213         2.45873
                        0.301179         156.137
                        0.383036        -54.7462         0.369378        -55.2508          0.31409         144.279         0.301179         156.137
                        0.712124        -1.40135
0.7891                  0.639101        -1.75293         0.358895         153.362          0.37389        -53.4041         0.381304        -53.7245
                         0.38216         -55.125
                        0.358433         153.515         0.674737        -5.02517         0.359558        -54.0462         0.367327        -54.2585
                         0.36887         -55.634
                        0.374966        -53.4939         0.359558        -54.0462         0.726793         -3.4986         0.303227         148.618
                        0.313353         144.137
                        0.381617        -53.7602         0.367243        -54.2526         0.303367         148.588         0.721871         2.39683
                        0.300515         156.109
                        0.382445         -55.157         0.368793        -55.6295         0.313364         144.134         0.300515         156.109
                        0.712568        -1.48656
0.79445                 0.638718        -1.77039         0.358796         153.209         0.373395        -53.7689          0.38075        -54.1135
                        0.381565         -55.532
                          0.3584         153.365         0.675298        -5.09471         0.358968        -54.3997         0.366749        -54.6225
                        0.368273        -56.0119
                        0.374425        -53.8672         0.358968        -54.3997         0.727781        -3.60101         0.302375         148.508
                        0.312635         143.991
                        0.381046        -54.1516         0.366668         -54.616         0.302503         148.476         0.722521         2.33541
                        0.299863         156.081
                        0.381835        -55.5662         0.368198        -56.0069         0.312644         143.988         0.299863         156.081
                        0.713002         -1.5708
0.7998                  0.638338        -1.78493         0.358699         153.054          0.37289        -54.1326         0.380181        -54.5009
                        0.380953        -55.9374
                        0.358369         153.213         0.675862        -5.16408         0.358372        -54.7522         0.366163        -54.9852
                        0.367666        -56.3884
                        0.373872        -54.2389         0.358372        -54.7522         0.728765        -3.70384         0.301528         148.398
                        0.311924         143.846