! IGNION VIRTUAL ANTENNA LIBRARY
!
! NN_TRIO_B110x50_C50x12
! Virtual Antenna™ TRIO mXTEND™: NN03-310 30.0mm x 3.0mm x 1.0mm
! https://ignion.io/product/trio-mxtend/
! Board: 110mm x 50mm
! Clearance Area: 50mm x 12mm
! Feeding line: straight line; 9mm x 1mm
! Applications: Smartphone, Fleet management, IoT
! Frequency range 0.65GHz to 6GHz, step ~5MHz
! Number of ports 5
!
! This product and its use are protected by at least one or more of the following patents and
! patent applications PAT. US 2020/0176855 A1; WO 2019/008171 A1; and other domestic and international
! patents pending. Additional information about patents related to this product is available at 
! https://ignion.io/files/Patent-list-NN.pdf, all rights reserved. Copyright, Ignion 2021.
!
! Need more help? Your platform is much different than these examples in the manual? Use our 
! Fast Track service (https://ignion.io/fast-track/), for free, and get a personalized antenna design in
! just 24 hours.
!
!
! Touchstone port 1 = CST MWS port 1 ("Series Feeding Port 1")
! Touchstone port 2 = CST MWS port 2 ("Series in-Trio Port 1")
! Touchstone port 3 = CST MWS port 3 ("Series in-Trio Port 2")
! Touchstone port 4 = CST MWS port 4 ("Series Port in Feeding line of Port 2")
! Touchstone port 5 = CST MWS port 5 ("Series Feeding Port 2")
!
! CST MICROWAVE STUDIO 2019
# GHz S MA R 50
! Nport = 5
0.8212                  0.636885         -1.8143         0.358317         152.417         0.370794        -55.5755         0.377759        -56.0325
                        0.378336          -57.54
                        0.358252         152.579         0.678151        -5.44011          0.35594        -56.1519         0.363745        -56.4222
                        0.365147        -57.8786
                        0.371559        -55.7089          0.35594        -56.1519         0.732653        -4.11917         0.298185          147.96
                        0.309143         143.265
                        0.377959        -56.0796         0.363681        -56.4132         0.298251         147.923         0.725675         2.03584
                        0.296757         155.924
                         0.37852        -57.5825         0.365086        -57.8712         0.309146         143.261         0.296757         155.924
                        0.715047         -1.9768
0.84795                 0.635343        -1.78979         0.357816         151.583         0.368013        -57.3489         0.374449           -57.9
                        0.374728        -59.4933
                         0.35806         151.734         0.681112        -5.78297         0.352801        -57.8763         0.360574        -58.1833
                        0.361823        -59.7019
                        0.368475        -57.5039         0.352801        -57.8763         0.737419        -4.64681         0.294083         147.414
                        0.305781         142.532
                        0.374546        -57.9515         0.360531        -58.1728         0.294085         147.376         0.728732         1.74895
                        0.293841         155.737
                        0.374818        -59.5398         0.361778         -59.693         0.305776         142.528         0.293841         155.737
                        0.716977        -2.35692
0.864                   0.634637        -1.74586         0.357475         151.061         0.366275        -58.3948          0.37234        -58.9916
                        0.372413         -60.634
                        0.357882         151.199         0.682956        -5.98848         0.350876        -58.8963         0.358611        -59.2193
                        0.359755        -60.7724
                        0.366548        -58.5557         0.350876        -58.8963         0.740235        -4.96769         0.291646         147.087
                        0.303803         142.087
                        0.372374        -59.0435          0.35858        -59.2083         0.291611         147.049         0.730554         1.58243
                        0.292143         155.608
                        0.372447         -60.681         0.359722        -60.7629         0.303794         142.083         0.292143         155.608
                        0.718128        -2.57297
0.8747                  0.634281          -1.706         0.357222         150.705         0.365093        -59.0838         0.370893        -59.7062
                        0.370819        -61.3801
                        0.357726         150.832         0.684218        -6.12579         0.349578        -59.5697         0.357283        -59.9008
                        0.358354        -61.4756
                         0.36524        -59.2458         0.349578        -59.5697         0.742096        -5.18336         0.290025         146.868
                        0.302494         141.788
                        0.370887        -59.7575         0.357261        -59.8896         0.289967         146.831         0.731775         1.47344
                        0.291019         155.514
                        0.370817        -61.4265         0.358327        -61.4659         0.302482         141.783         0.291019         155.514
                        0.718908        -2.71237
0.8961                  0.633884        -1.60511         0.356635         149.975         0.362685        -60.4411         0.367926         -61.102
                        0.367536        -62.8353
                        0.357298         150.075         0.686826        -6.40217         0.346961        -60.9006         0.354597        -61.2407
                        0.355513        -62.8555
                        0.362592        -60.5986         0.346961        -60.9006         0.745784        -5.61891         0.286777         146.428
                        0.299883         141.182
                        0.367845        -61.1499          0.35459        -61.2297         0.286678         146.396         0.734249         1.25936
                        0.288763         155.307
                        0.367466        -62.8788         0.355501        -62.8458         0.299866         141.178         0.288763         155.307
                        0.720528        -2.98125
0.90145                 0.633855        -1.57623         0.356469         149.788         0.362076        -60.7759         0.367173        -61.4438
                          0.3667         -63.191
                        0.357163         149.881         0.687497         -6.4718         0.346303        -61.2299         0.353921        -61.5707
                        0.354798        -63.1948
                        0.361926        -60.9309         0.346303        -61.2299           0.7467        -5.72869         0.285962         146.318
                        0.299229         141.029
                        0.367074        -61.4904         0.353919        -61.5599         0.285854         146.288         0.734877         1.20646
                        0.288193         155.252
                        0.366614        -63.2335         0.354789        -63.1853          0.29921         141.025         0.288193         155.252
                         0.72095        -3.04664
0.92285                 0.634048        -1.45019          0.35571          149.03         0.359626        -62.0968         0.364138        -62.7808
                        0.363319        -64.5806
                          0.3565         149.091         0.690259        -6.75342         0.343666        -62.5332         0.351216        -62.8709
                        0.351932        -64.5291
                        0.359265         -62.237         0.343666        -62.5332         0.750341        -6.17146         0.282677         145.879
                        0.296595         140.411
                        0.363978        -62.8209         0.351227         -62.861         0.282539         145.854         0.737442        0.996274
                        0.285867         155.017
                        0.363177        -64.6172         0.351936        -64.5201         0.296572         140.408         0.285867         155.017
                        0.722724        -3.30238
0.95495                 0.635301        -1.24569         0.354248         147.858         0.355949        -64.0214         0.359597        -64.6952
                        0.358229        -66.5613
                        0.355081          147.87         0.694641         -7.1887         0.339722         -64.446         0.347194        -64.7606
                        0.347673        -66.4604
                        0.355339        -64.1269         0.339722         -64.446         0.755744        -6.84713         0.277647         145.222
                        0.292548          139.47
                         0.35937        -64.7221         0.347223        -64.7529         0.277482          145.21          0.74148        0.680705
                        0.282173         154.632
                        0.358026        -66.5861         0.347693        -66.4532          0.29252         139.468         0.282173         154.632
                        0.725705        -3.67468
0.9603                  0.635624         -1.2117         0.353962          147.66         0.355341        -64.3355         0.358851        -65.0036
                        0.357389        -66.8791
                        0.354792         147.663         0.695399        -7.26316         0.339069        -64.7599         0.346533        -65.0685
                        0.346974        -66.7742
                        0.354699        -64.4341         0.339069        -64.7599         0.756639        -6.96117         0.276793         145.114
                        0.291857         139.312
                        0.358616         -65.028         0.346564        -65.0614         0.276626         145.103         0.742178         0.62752
                        0.281526         154.565
                        0.357179        -66.9017         0.346996        -66.7674         0.291829          139.31         0.281526         154.565
                        0.726244        -3.73619
1.5595                  0.692097        -7.57392         0.289466         135.361         0.330793        -97.0043         0.345505        -96.2156
                        0.343652        -98.2358
                        0.289717         135.308          0.76323        -20.4241         0.290101        -97.9367         0.313583        -97.4334
                        0.317263        -99.5218
                        0.330441        -97.0265         0.290101        -97.9367         0.821153        -23.1346         0.186636         153.016
                        0.202478          137.29
                        0.345387        -96.2156         0.313597        -97.4313         0.186576         153.032         0.794721        -10.9193
                        0.209087          170.33
                        0.343546        -98.2357         0.317273        -99.5194         0.202463         137.292         0.209087          170.33
                        0.782051        -17.2823
1.57555                 0.691025        -7.83216         0.289072         135.296         0.330624        -98.0399         0.345983         -97.275
                        0.344278        -99.3306
                        0.289264         135.237         0.763601        -20.8111         0.288854        -98.9044         0.312944        -98.4259
                        0.316794        -100.544
                        0.330262        -98.0502         0.288854        -98.9044         0.820872        -23.6245         0.186755         153.885
                        0.201956         137.907
                         0.34587        -97.2713         0.312959        -98.4246         0.186708         153.903         0.793284        -11.3223
                        0.210855         171.324
                        0.344176        -99.3273         0.316805        -100.542         0.201941         137.909         0.210855         171.324
                        0.780649        -17.7795
1.60765                 0.688485        -8.32173         0.288597         135.142         0.330137        -100.145         0.346801         -99.438
                        0.345385        -101.569
                         0.28866         135.076         0.764216        -21.5761         0.286231         -100.85         0.311526        -100.428
                         0.31571        -102.607
                        0.329794        -100.132         0.286231         -100.85         0.819882        -24.5974         0.187752         155.593
                        0.201627         139.173
                        0.346708        -99.4279          0.31154        -100.428         0.187733         155.614         0.789773        -12.1186
                        0.215334         173.185
                        0.345301         -101.56         0.315722        -102.607         0.201615         139.176         0.215334         173.185
                        0.777143        -18.7682
1.7093                  0.677708        -9.57084         0.289219         134.329         0.326872        -107.066         0.347681        -106.644
                        0.347141         -109.05
                        0.288972         134.301         0.765411        -23.9236         0.276645        -107.054         0.305599        -106.869
                         0.31081        -109.265
                         0.32681        -107.011         0.276645        -107.054         0.813148        -27.5708         0.197222         160.153
                         0.20709          142.93
                        0.347702        -106.627         0.305596        -106.872         0.197272         160.161         0.773193        -14.4753
                         0.23676         177.458
                        0.347162        -109.035         0.310808        -109.268         0.207088         142.932          0.23676         177.458
                        0.759886        -21.7661
1.71465                 0.677062        -9.62159         0.289314          134.27         0.326613        -107.439         0.347636        -107.037
                        0.347141        -109.459
                        0.289061         134.246         0.765454        -24.0444         0.276082         -107.38         0.305221         -107.21
                        0.310484        -109.619
                         0.32657        -107.383         0.276082         -107.38         0.812654        -27.7208         0.197956         160.338
                        0.207643         143.096
                        0.347663         -107.02         0.305215        -107.214         0.198006         160.345         0.772104         -14.589
                        0.238135         177.602
                        0.347167        -109.444          0.31048        -109.622         0.207641         143.098         0.238135         177.602
                        0.758728        -21.9146
1.72535                 0.675759        -9.71811         0.289518         134.146         0.326064        -108.187         0.347512        -107.825
                        0.347109         -110.28
                        0.289254          134.13         0.765539        -24.2854         0.274938        -108.031         0.304441        -107.892
                        0.309808        -110.326
                        0.326059         -108.13         0.274938        -108.031          0.81163        -28.0184         0.199482         160.687
                        0.208823         143.413
                        0.347552        -107.809         0.304433        -107.896         0.199534         160.691         0.769867        -14.8122
                        0.240942         177.865
                        0.347145        -110.265         0.309803        -110.329         0.208821         143.415         0.240942         177.865
                         0.75634        -22.2078
1.74675                 0.673118        -9.89077         0.289965         133.878         0.324843        -109.689          0.34713        -109.416
                        0.346907        -111.937
                        0.289697         133.876         0.765696        -24.7649         0.272576        -109.328         0.302795        -109.256
                        0.308367        -111.742
                        0.324913        -109.634         0.272576        -109.328          0.80944        -28.6032         0.202751           161.3
                        0.211462         143.986
                        0.347192        -109.401         0.302782         -109.26         0.202804           161.3         0.765169        -15.2412
                        0.246755         178.289
                        0.346963        -111.924         0.308357        -111.745         0.211462         143.987         0.246755         178.289
                        0.751293        -22.7774
1.7949                  0.667193         -10.177         0.291085         133.174         0.321461        -113.088          0.34555        -113.046
                        0.345729        -115.728
                        0.290873         133.201         0.766017        -25.8336         0.266905        -112.214         0.298656        -112.311
                        0.304671         -114.92
                        0.321671        -113.047         0.266905        -112.214         0.803918        -29.8628          0.21096         162.251
                        0.218611         144.926
                        0.345645        -113.038         0.298634        -112.313            0.211         162.243         0.753645        -16.1088
                        0.260541         178.753
                        0.345816        -115.721         0.304652        -114.923         0.218611         144.927         0.260541         178.753
                        0.738733        -23.9627
1.83235                 0.662838        -10.3015         0.291966         132.533         0.318191        -115.736         0.343564        -115.903
                         0.34405        -118.722
                        0.291845         132.575         0.766255        -26.6577         0.262167        -114.411         0.295016        -114.659
                        0.301351        -117.372
                        0.318469        -115.712         0.262167        -114.411          0.79919        -30.7825         0.217878         162.575
                        0.225087         145.288
                        0.343668        -115.902         0.294988         -114.66         0.217897         162.563         0.743988        -16.6752
                        0.271584         178.672
                        0.344145        -118.721         0.301328        -117.374         0.225085         145.288         0.271584         178.672
                         0.72802        -24.7735
1.86445                 0.659467        -10.3436          0.29266         131.923         0.314929        -117.993         0.341296        -118.362
                        0.342035        -121.307
                        0.292633         131.971         0.766457        -27.3613         0.257895        -116.248         0.291608         -116.64
                        0.298197        -119.448
                        0.315228        -117.987         0.257895        -116.248         0.794954        -31.5255         0.223956         162.575
                        0.231065          145.33
                        0.341395        -118.366         0.291579         -116.64         0.223955         162.562          0.73543        -17.0752
                        0.281002         178.326
                        0.342125        -121.311         0.298171        -119.448         0.231061         145.329         0.281002         178.326
                         0.71838        -25.3778
1.8912                  0.657014        -10.3374         0.293158         131.378         0.311889        -119.855         0.338994        -120.408
                        0.339933        -123.465
                        0.293211         131.424         0.766628        -27.9466         0.254204        -117.738         0.288575         -118.26
                        0.295357        -121.152
                        0.312179        -119.864         0.254204        -117.738          0.79137        -32.1115         0.228999         162.393
                         0.23622         145.179
                         0.33908        -120.416         0.288547        -118.259         0.228981         162.381         0.728237        -17.3443
                        0.288667         177.862
                        0.340012        -123.472         0.295331        -121.151         0.236214         145.178         0.288667         177.862
                        0.710162        -25.8109
1.92865                 0.654261         -10.276         0.293686         130.563         0.307155         -122.42         0.335138        -123.252
                        0.336331        -126.477
                        0.293835           130.6          0.76687        -28.7663         0.248875        -119.749         0.284061        -120.469
                        0.291079        -123.485
                        0.307397        -122.447         0.248875        -119.749          0.78639        -32.8812         0.235845          161.89
                        0.243503         144.699
                        0.335197        -123.265         0.284036        -120.466         0.235808          161.88         0.718292        -17.6197
                        0.298905         176.983
                        0.336386        -126.489         0.291054        -123.483         0.243494         144.698         0.298905         176.983
                        0.698613        -26.3023
1.9554                  0.652855        -10.2032         0.293913          129.95         0.303453         -124.21         0.331939        -125.257
                        0.333289        -128.611
                        0.294113         129.977         0.767042         -29.353         0.244984        -121.122         0.280671        -121.995
                        0.287829        -125.104
                        0.303639        -124.248         0.244984        -121.122         0.782939        -33.3957         0.240473         161.374
                        0.248625          144.18
                        0.331975        -125.272          0.28065        -121.992         0.240425         161.368         0.711433        -17.7443
                        0.305737         176.217
                        0.333324        -128.624         0.287808        -125.102         0.248614         144.179         0.305737         176.217
                        0.690503        -26.5687
1.9661                  0.652434        -10.1693         0.293964         129.699         0.301902        -124.914         0.330559        -126.051
                        0.331966        -129.458
                        0.294179         129.721         0.767111        -29.5882         0.243415        -121.655         0.279283        -122.592
                         0.28649        -125.739
                        0.302063        -124.955         0.243415        -121.655         0.781598        -33.5937         0.242244         161.137
                        0.250631         143.935
                        0.330585        -126.066         0.279264        -122.588         0.242193         161.132         0.708775        -17.7778
                        0.308335         175.883
                        0.331991        -129.471         0.286469        -125.737          0.25062         143.934         0.308335         175.883
                        0.687326        -26.6555
2.041                   0.651878         -9.9068         0.293596         127.881         0.290128        -129.594         0.319454        -131.408
                        0.321109        -135.223
                        0.293815         127.865         0.767551        -31.2464         0.232435        -125.093         0.269242        -126.508
                         0.27666         -129.94
                        0.290089         -129.64         0.232435        -125.093         0.773164        -34.8695         0.252991         159.083
                        0.263528         141.717
                        0.319417         -131.42         0.269237        -126.504         0.252941         159.087         0.692184        -17.7781
                        0.323952         173.228
                        0.321077        -135.233         0.276652        -129.936         0.263514         141.717         0.323952         173.228
                        0.666925        -26.9644
2.06775                 0.652685         -9.8249         0.293132          127.22         0.285635        -131.137         0.314969        -133.212
                        0.316639        -137.185
                        0.293315         127.194         0.767676        -31.8456         0.228614        -126.184         0.265619         -127.78
                        0.273053        -131.319
                        0.285533        -131.179         0.228614        -126.184         0.770666        -35.2875         0.256019         158.234
                        0.267476         140.759
                        0.314916        -133.221         0.265619        -127.776         0.255977          158.24         0.687338        -17.6969
                        0.328312         172.195
                        0.316593        -137.194         0.273049        -131.316         0.267462         140.759         0.328312         172.195
                        0.660717        -26.9634
2.07845                 0.653146        -9.79709         0.292896         126.957         0.283814        -131.733         0.313116        -133.914
                        0.314779        -137.953
                        0.293059         126.927         0.767717        -32.0866         0.227116        -126.599         0.264182        -128.268
                        0.271613        -131.851
                         0.28369        -131.771         0.227116        -126.599         0.769755        -35.4506         0.257101         157.884
                        0.268939         140.358
                        0.313058        -133.921         0.264183        -128.265         0.257062         157.892         0.685583        -17.6559
                        0.329866         171.778
                        0.314729         -137.96          0.27161        -131.848         0.268925         140.358         0.329866         171.778
                        0.658429        -26.9498
2.12125                 0.655714        -9.72571         0.291667         125.917         0.276476        -133.979         0.305457        -136.593
                        0.307014        -140.903
                        0.291737         125.878         0.767822        -33.0585         0.221366        -128.139         0.258573        -130.101
                        0.265938        -133.859
                        0.276291            -134         0.221366        -128.139          0.76664        -36.0879          0.26067         156.458
                        0.274073         138.682
                        0.305392        -136.594         0.258579        -130.099          0.26065         156.468         0.679669         -17.459
                        0.334979         170.106
                        0.306956        -140.905          0.26594        -133.857          0.27406         138.683         0.334979         170.106
                        0.650495        -26.8382
2.148                    0.65783         -9.7215         0.290676         125.288         0.271925        -135.265         0.300551        -138.153
                        0.301973         -142.64
                        0.290683         125.248         0.767822         -33.673         0.218022        -129.005         0.255247        -131.147
                        0.262527        -135.013
                        0.271725        -135.272         0.218022        -129.005         0.765129        -36.4799         0.262294         155.567
                        0.276677         137.598
                        0.300489         -138.15         0.255254        -131.146         0.262287         155.576         0.676879        -17.3238
                        0.337296         169.083
                        0.301917        -142.638         0.262531        -135.012         0.276665           137.6         0.337296         169.083
                        0.646573        -26.7383
2.17475                 0.660255        -9.75434         0.289529         124.682         0.267475        -136.456         0.295635        -139.619
                        0.296865        -144.285
                        0.289477         124.645         0.767755        -34.2933         0.214917        -129.801         0.252119        -132.117
                        0.259284        -136.091
                         0.26728         -136.45         0.214917        -129.801         0.763945        -36.8727         0.263473         154.694
                        0.278809         136.507